LAMMPS data file via write_data, version 29 Aug 2024, timestep = 252144, units = real

602 atoms
3 atom types
601 bonds
3 bond types
1200 angles
6 angle types
1791 dihedrals
5 dihedral types

6.550379570902862 26.301620429097152 xlo xhi
6.550379570902862 26.301620429097152 ylo yhi
6.550379570902862 26.301620429097152 zlo zhi

Masses

1 1.008
2 12.011
3 18.998

Pair Coeffs # lj/class2/coul/long

1 0.02 2.995
2 0.054 4.01
3 0.0598 3.2

Bond Coeffs # class2

1 1.101 345 -691.89 844.6
2 1.53 299.67 -501.77 679.81
3 1.39 403.032 0 0

Angle Coeffs # quartic

1 110.77 41.453 -10.604 5.129
2 109.2 68.3715 0 0
3 108.501 57.576 0 0
4 109.103 71.97 0 0
5 107.66 39.641 -12.921 -2.4318
6 112.67 39.516 -7.443 -9.5583

Dihedral Coeffs # fourier

1 2 0.0514 2 0 -0.143 3 0
2 1 0.15 3 0
3 2 0.0316 2 0 -0.1681 3 0
4 1 -0.1 3 0
5 3 -0.1432 1 0 0.0617 2 0 -0.1083 3 0

Atoms # full

285 1 2 0.25977 10.56005045951061 12.447865375658628 9.56676448069678 1 1 0
286 1 3 -0.20524 11.802974644729897 12.150958001655653 8.874225303434018 1 1 0
289 1 1 0.03809 10.080961736712814 11.287144524521338 8.019678525537055 1 1 0
278 1 2 0.07454 10.965186562045599 12.440434880602785 11.032095144618461 1 1 0
282 1 1 0.03809 11.922513348204117 11.970246358040594 11.2644266542873 1 1 0
280 1 3 -0.20524 11.800560687671627 14.630224479616846 10.59828547853251 1 1 0
279 1 2 0.25977 11.17713597223877 13.909973311998325 11.530669702242959 1 1 0
277 1 1 0.03809 12.751947413893241 14.04630959707939 13.062402256038578 1 1 0
272 1 2 0.07454 11.808639316957285 14.38838756903638 12.89398269584431 1 1 0
276 1 1 0.03809 11.886876726451757 15.471642688408018 12.947560826651506 1 1 0
275 1 3 -0.20524 11.786115632731324 14.341653675604473 15.206000347003604 1 1 0
271 1 1 0.03809 9.933636387553364 15.741460926484228 15.186572372167339 1 1 0
281 1 3 -0.20524 9.87483357645566 14.49051532965878 11.47784672510729 1 1 0
273 1 2 0.25977 10.986672042313746 14.15329982714296 14.181043256047746 1 1 0
266 1 2 0.07454 9.783891154794011 15.151676844728073 14.28002031558664 1 1 0
274 1 3 -0.20524 10.561696073790607 12.844981990095897 14.4276109846756 1 1 0
270 1 1 0.03809 9.678678796762737 15.973779436215526 13.50246964385082 1 1 0
269 1 3 -0.20524 8.808284801736981 13.343761974539682 13.188769280498953 1 1 0
291 1 2 0.25977 9.112190716340619 10.114170278130388 9.618866849901094 1 1 0
284 1 2 0.07454 9.533545139613636 11.522209658204625 8.963890286372559 1 1 0
288 1 1 0.03809 8.714309998155155 12.128341692941596 8.47970752062107 1 1 0
502 1 3 -0.20524 13.494628372169277 7.270680502786051 14.194214810273202 -1 1 0
498 1 1 0.03809 11.976724116725448 6.880066028657055 12.402686048190901 -1 1 0
501 1 2 0.25977 14.102421971530063 6.920549985614705 12.981431762335784 -1 1 0
283 1 1 0.03809 10.198979389029791 12.146067390800773 11.7146946553931 1 1 0
287 1 3 -0.20524 10.154437113559212 13.728346279001972 9.104809362058614 1 1 0
503 1 3 -0.20524 14.68939088047621 8.05104033085787 12.499440518634776 -1 1 0
83 1 3 -0.20524 14.558294140802214 13.699013033946034 11.25924502860173 1 0 0
297 1 2 0.25977 6.99582533112996 8.698352274170277 9.475891210018778 1 1 0
195 1 2 0.25977 8.792357471399669 7.4029213891087355 14.558228038623744 1 1 0
196 1 3 -0.20524 9.311653704967604 8.506924963040706 13.894263902448358 1 1 0
267 1 2 0.25977 8.50436117433929 14.366617492089848 14.061552275718721 1 1 0
496 1 3 -0.20524 13.068431513843372 7.9039201200293085 10.0475094573703 -1 1 0
292 1 3 -0.20524 8.49604857645421 10.239120833861119 10.895317041698174 1 1 0
299 1 3 -0.20524 6.7043875564669255 7.647131658024338 8.677840175012241 1 1 0
71 1 3 -0.20524 15.774345016870063 13.655820822589266 14.564490275342306 1 0 0
505 1 1 0.03809 15.992304973838932 6.695736884489552 13.895687379932097 -1 1 0
298 1 3 -0.20524 7.403321382162137 8.100914990352564 10.667142403436019 1 1 0
61 1 1 0.03809 14.846468039290333 11.79429915770305 15.849401364457176 1 0 0
63 1 2 0.25977 16.31471329870763 10.781523224727387 14.774308707473388 1 0 0
64 1 3 -0.20524 16.353466420751417 10.672719316581015 13.374480101661554 1 0 0
293 1 3 -0.20524 10.287777633332958 9.521732149078186 9.90108890243091 1 1 0
294 1 1 0.03809 8.129016852717136 9.426572238563466 7.730939366942937 1 1 0
290 1 2 0.07454 8.333498134573883 9.141215914404931 8.798712883708559 1 1 0
295 1 1 0.03809 8.88425949171037 8.207227307102944 8.587265728314437 1 1 0
81 1 2 0.25977 15.457525069631432 14.709845225226992 10.874507688636736 1 0 0
426 1 1 0.03809 16.23689440188853 9.018419635298816 9.23328991340472 -1 1 0
424 1 3 -0.20524 15.686654716273546 10.408566331906005 7.270380028047372 -1 1 0
91 1 1 0.03809 13.662402134388206 14.992980454675243 8.892886209199197 1 0 0
188 1 2 0.07454 7.26982895008928 7.124727658924625 14.341409429019905 1 1 0
202 1 3 -0.20524 11.426192133630002 6.60398805855674 16.385701682564495 1 1 0
265 1 1 0.03809 6.657433874702653 13.931712938963134 15.106465482949933 1 1 0
268 1 3 -0.20524 7.665406320721178 15.205014516029888 13.434431697865122 1 1 0
264 1 1 0.03809 7.879377166323756 12.491539345984378 15.088896491926073 1 1 0
56 1 2 0.07454 14.80950741706913 10.83627802879305 15.363040510129448 1 0 0
60 1 1 0.03809 14.193052823182928 10.897879072006859 14.483871400039297 1 0 0
85 1 1 0.03809 15.618627362074896 13.29970990292814 9.251905767239741 1 0 0
427 1 1 0.03809 17.074807393127724 8.23782517203566 7.954461392755808 -1 1 0
80 1 2 0.07454 16.0467218851188 14.32313876840912 9.55310703755932 1 0 0
87 1 2 0.25977 15.748799465480655 15.307263910670763 8.461447934173547 1 0 0
192 1 1 0.03809 6.9731365206942995 7.633972238663572 13.44689849985155 1 1 0
193 1 1 0.03809 6.697999771879649 7.6252934789106455 15.1311302317016 1 1 0
194 1 2 0.07454 9.132649677023583 7.601517775514763 16.03315291186665 1 1 0
86 1 2 0.07454 14.222720868096442 15.325835419989291 8.077327637039522 1 0 0
95 1 3 -0.20524 12.348053117071519 16.448883692169296 6.991813214391903 1 0 0
82 1 3 -0.20524 14.665732898031823 15.894500153904364 10.640902662785798 1 0 0
198 1 1 0.03809 9.682406693371977 8.555007834829313 16.12260982696386 1 1 0
78 1 1 0.03809 15.785453309642863 15.280335667243957 12.804490076958972 1 0 0
260 1 2 0.07454 7.7856530770981225 13.67191573511302 15.300546618350564 1 1 0
58 1 3 -0.20524 14.65377943642258 8.598325182206795 15.766175439768505 1 0 0
65 1 3 -0.20524 16.721445139602913 9.554354336215354 15.303007617628316 1 0 0
70 1 3 -0.20524 17.259401804450007 14.230486582038893 16.040479032089348 1 0 0
67 1 1 0.03809 18.280290832202247 11.770172313325382 14.974045999274862 1 0 0
62 1 2 0.07454 17.19119898521744 11.937988057223757 15.322662706092261 1 0 0
557 1 3 -0.20524 21.791128707588655 16.834397610952642 13.838022008664247 -1 1 0
301 1 1 0.03809 25.008781538051803 9.821770251221654 8.600324266989471 0 1 0
69 1 2 0.25977 17.1071591331318 13.470530741010753 14.93430003958133 1 0 0
72 1 1 0.03809 18.133500238408544 15.086339451392492 13.975198549370958 1 0 0
76 1 3 -0.20524 17.14049193824539 12.575484722230447 12.148537535649199 1 0 0
75 1 2 0.25977 17.52124534851344 13.892327244205408 12.358328196197522 1 0 0
68 1 2 0.07454 18.022714781072203 14.03037940013892 13.789397695159995 1 0 0
73 1 1 0.03809 19.013763717403407 13.515893356527494 13.858259730609463 1 0 0
602 1 1 0.02868 22.31624374197432 12.265891045328782 10.342044267499107 -1 1 0
590 1 2 0.07405 22.135813422199753 13.280726724061122 7.2000294509582385 -1 1 0
597 1 2 0.25162 22.653849513531455 12.185551926619478 8.134656587654064 -1 1 0
596 1 2 -0.00098 21.85261629240071 11.895201397326545 9.440563300428579 -1 1 0
599 1 3 -0.20576 22.77566818928426 10.936677180877677 7.466644349994414 -1 1 0
423 1 2 0.25977 16.951022700088544 10.369353031656894 7.8661904531686835 -1 1 0
422 1 2 0.07454 17.1514234147611 9.098421573348869 8.627088443122926 -1 1 0
429 1 2 0.25977 18.302197505181358 9.061378063890334 9.710421239376256 -1 1 0
428 1 2 0.07454 17.93823450292129 9.48267048576795 11.20572421964264 -1 1 0
431 1 3 -0.20524 18.923688133379066 7.773296723637735 9.79559549480227 -1 1 0
432 1 1 0.03809 17.203878718251296 10.28265977973967 11.165339813233242 -1 1 0
430 1 3 -0.20524 19.313509051563003 9.902181959077414 9.094886997724803 -1 1 0
439 1 1 0.03809 20.507124640527085 8.347734220062122 11.887847861140477 -1 1 0
434 1 2 0.07454 19.838646255876647 8.807457294140816 12.603613418167562 -1 1 0
441 1 2 0.25977 20.79767147766255 9.336064780020633 13.746047971700955 -1 1 0
433 1 1 0.03809 17.43444462311762 8.666801170923243 11.851178998667017 -1 1 0
435 1 2 0.25977 19.129357671990984 10.06750476826343 12.054333037508815 -1 1 0
438 1 1 0.03809 19.26770948168655 7.969877993611423 12.853175960173212 -1 1 0
74 1 2 0.07454 16.434002981695173 14.969222744529755 11.978894406946068 1 0 0
595 1 1 0.03808 23.027440838594064 13.467892644267582 6.598362225492853 -1 1 0
600 1 1 0.02868 20.949672883420412 12.501037280507298 9.48048484087588 -1 1 0
436 1 3 -0.20524 18.566272128824785 10.548543641733668 13.239848204780698 -1 1 0
437 1 3 -0.20524 19.95580896862606 10.920832892424547 11.293157527659766 -1 1 0
601 1 1 0.02868 21.624610494521505 10.792598619628567 9.503792294608836 -1 1 0
555 1 2 0.25977 21.729011443081554 16.163410738889006 15.153020311710774 -1 1 0
591 1 2 0.25976 21.4452187840756 14.545979087626295 7.8954127155191065 -1 1 0
598 1 3 -0.20576 23.898349626046176 12.506300508972117 8.59644754957057 -1 1 0
593 1 3 -0.20524 20.132379331848103 14.109416835500102 8.023269474430464 -1 1 0
556 1 3 -0.20524 20.561595509871367 16.332659332832833 15.843307307610944 -1 1 0
77 1 3 -0.20524 18.576927398701677 14.065251162223817 11.520679713295564 1 0 0
444 1 1 0.03809 22.607982716231778 8.57928933544806 14.085454961621146 -1 1 0
425 1 3 -0.20524 16.838309350660325 11.430851656854122 8.806696273923004 -1 1 0
305 1 3 -0.20524 24.743660374225062 9.869621838008777 11.834774112099158 0 1 0
84 1 1 0.03809 17.11065863957916 14.141447693455875 9.573536798426684 1 0 0
563 1 3 -0.20524 24.87355879492294 15.9757285286901 16.7483673494453 -1 1 0
562 1 3 -0.20524 24.558003208344946 16.164227287936455 14.468970577997608 -1 1 0
588 1 1 0.03809 21.477323920652196 14.250741516993951 9.975228798679606 -1 1 0
300 1 1 0.03809 26.02770866803957 10.615642126318562 9.951951971856447 0 1 0
304 1 3 -0.20524 23.22742979376631 9.536627935794877 10.340917234142841 0 1 0
296 1 2 0.07454 25.54172969298296 9.630475854738748 9.605593687702122 0 1 0
88 1 3 -0.20524 16.512050824991398 15.134006751585579 7.306122370062129 1 0 0
303 1 2 0.25977 24.50847798376696 9.108617035752005 10.658569864604395 0 1 0
311 1 3 -0.20524 21.91771486818979 7.585870062103659 10.758101939482899 0 1 0
307 1 1 0.03809 24.152334413127676 7.533276389974867 12.13383784582424 0 1 0
547 1 1 0.03809 20.00218232872342 14.24161319126852 16.22185313523693 -1 1 0
443 1 3 -0.20524 21.67670114399165 10.212617408620234 13.093320380362986 -1 1 0
440 1 2 0.07454 21.684980990286828 8.297239003217479 14.533977987867983 -1 1 0
306 1 1 0.03809 25.26310712063988 7.132423554542348 10.889415311453586 0 1 0
309 1 2 0.25977 23.17148066833307 7.138837733112367 10.172736896733069 0 1 0
310 1 3 -0.20524 23.52384599991524 7.595399640521755 8.889188909411825 0 1 0
302 1 2 0.07454 24.302480672917856 7.60630663248316 11.061745074288007 0 1 0
553 1 1 0.03809 21.223002989695694 14.373709020808839 14.284860005678468 -1 1 0
594 1 1 0.03808 21.488999465774583 12.88349455508926 26.064965064248145 -1 1 -1
548 1 2 0.07454 22.014840277824547 14.692158607469482 14.991138438127374 -1 1 0
552 1 1 0.03809 23.00209624137121 14.46171528434153 14.557788002877219 -1 1 0
421 1 1 0.03809 18.431558005973613 9.67027598999323 26.213762818742026 -1 1 -1
416 1 2 0.07454 17.893288625496158 10.57585964538529 6.602432581331129 -1 1 0
418 1 3 -0.20524 18.839541553975266 11.99747459653241 7.867657172005293 -1 1 0
322 1 3 -0.20524 20.274121879040926 6.947998322070281 7.254817138074263 0 1 0
586 1 3 -0.20524 23.561639698113463 15.382768665188904 10.755978230543924 -1 1 0
79 1 1 0.03809 17.17386727916844 15.767902320754784 11.684328212611703 1 0 0
442 1 3 -0.20524 20.125851484207324 10.168934599940894 14.675226910999251 -1 1 0
584 1 2 0.07454 21.710310665425723 15.108830101624717 9.321215615350278 -1 1 0
589 1 1 0.03809 21.01249828607808 15.910107451679767 9.65847756752288 -1 1 0
587 1 3 -0.20524 24.213124255763145 15.347693148011556 8.600626738826582 -1 1 0
585 1 2 0.25977 23.146032372206275 15.721802529811363 9.49912974517739 -1 1 0
445 1 1 0.03809 21.791889681987087 8.767826072439508 15.50750744181005 -1 1 0
319 1 1 0.03809 20.64688553918885 25.774904813341525 9.636972783578283 0 0 0
89 1 3 -0.20524 16.234262085672675 16.561817890651817 8.829536831303008 1 0 0
592 1 3 -0.20524 21.457986023421366 15.646569846431886 7.063927615591285 -1 1 0
494 1 2 0.07454 13.010470286517862 26.194429348954667 12.021970782989138 -1 0 0
197 1 3 -0.20524 9.553795520800243 25.963014112893482 14.242120957324572 1 0 0
495 1 2 0.25977 13.253737138187939 6.588077147153351 10.412686154489004 -1 1 0
497 1 3 -0.20524 14.603405007607543 26.13945485980371 10.10529660890905 -1 0 0
499 1 1 0.03809 13.038119931027676 25.17228649407413 12.264361421975654 -1 0 0
500 1 2 0.07454 15.318781395578698 25.754600351042917 13.349546675054084 -1 0 0
510 1 1 0.03809 16.3980865264065 23.39074453699498 15.630876566550485 -1 0 0
504 1 1 0.03809 15.8519406985001 25.432887519869684 12.484191349603307 -1 0 0
509 1 3 -0.20524 13.68834331178108 24.691746771468157 15.01927985184648 -1 0 0
507 1 2 0.25977 14.97654270552334 24.595988487248317 14.416993588057844 -1 0 0
506 1 2 0.07454 16.043871293711337 24.433286583775466 15.60368305175239 -1 0 0
4 1 3 -0.20905 9.87472712238063 20.68589010070413 9.701666188801006 1 0 0
492 1 1 0.03809 11.296667567131479 25.95867859877542 9.539651622355564 -1 0 0
488 1 2 0.07454 12.349322096611306 25.415250030131475 9.526869887871035 -1 0 0
7 1 1 0.03779 12.038510871534333 18.577515731973875 9.878741399121088 1 0 0
493 1 1 0.03809 12.241414624873707 24.563376320575244 10.311212896569003 -1 0 0
1 1 1 0.10196 10.170282686189747 19.207204538453734 8.259822874525149 1 0 0
3 1 2 0.24476 10.658200746122455 19.734174881699193 9.032433491663033 1 0 0
5 1 3 -0.20905 11.706731495137944 20.487670316682326 8.574326161475483 1 0 0
508 1 3 -0.20524 14.829001622995962 23.31952056880077 13.789378412143376 -1 0 0
15 1 2 0.25977 13.431400753913056 19.73430059306989 12.460477126443603 1 0 0
17 1 3 -0.20524 14.056548300272421 18.911354011895547 11.611917477719432 1 0 0
8 1 2 0.07452 12.014400110484976 20.281209775588408 11.906141182140288 1 0 0
13 1 1 0.03809 11.448976326548312 21.01846201464526 12.648755183546143 1 0 0
14 1 2 0.07454 13.213590776252788 19.308391568078875 13.885031721812078 1 0 0
19 1 1 0.03809 12.194313701863809 19.05967438182188 14.192716438105016 1 0 0
16 1 3 -0.20524 14.28757358362959 20.92913688385712 12.54671752176463 1 0 0
6 1 1 0.03779 10.248455343311397 17.958219675785962 9.858306196209876 1 0 0
9 1 2 0.25949 11.082804553241932 19.06647738259734 11.549340645286627 1 0 0
2 1 2 0.07149 11.010765961778986 18.677263909842637 10.065403774681517 1 0 0
182 1 2 0.07454 7.4648992300883945 24.369162857832595 13.442199563912919 1 0 0
177 1 2 0.25977 7.851111291385673 24.218976550031247 9.446859037325687 1 0 0
183 1 2 0.25977 8.127467329734701 24.636334602969495 12.057765816490281 1 0 0
186 1 1 0.03809 6.906942806079519 23.393153294634597 13.59485354423033 1 0 0
187 1 1 0.03809 8.284896537232099 24.107917276964677 14.144020248306877 1 0 0
185 1 3 -0.20524 9.458020378116688 24.29245329855791 12.142637844308663 1 0 0
170 1 2 0.07454 8.27000808821917 22.883472317641456 8.699482771966913 1 0 0
484 1 3 -0.20524 14.469392857993128 23.490216867457576 10.29461480600538 -1 0 0
489 1 2 0.25977 12.76885290476838 24.944588470802742 8.122733453027925 -1 0 0
490 1 3 -0.20524 11.680787422280563 24.767475409968846 7.156494631348114 -1 0 0
483 1 2 0.25977 14.72608809616584 23.13581603513349 8.980440821473326 -1 0 0
485 1 3 -0.20524 14.517673699382618 21.750085657316404 9.007091740905864 -1 0 0
93 1 2 0.25977 13.543686054632833 16.680622812249663 7.741120540710696 1 0 0
491 1 3 -0.20524 13.551719146813543 25.955497108613073 7.65224156012115 -1 0 0
486 1 1 0.03809 14.50959470726362 24.145574901347615 7.034575787537105 -1 0 0
487 1 1 0.03809 13.170372563385454 23.0612306369056 7.54757293978664 -1 0 0
482 1 2 0.07454 13.795394742703682 23.856174417061357 7.944377649165813 -1 0 0
476 1 2 0.07454 16.266511085524662 23.58334547398955 8.79617283111733 -1 0 0
12 1 1 0.03809 12.14815673403351 20.816098854456605 11.031259786774182 1 0 0
10 1 3 -0.20526 11.727372170864736 17.98611937934419 12.139401006793308 1 0 0
11 1 3 -0.20526 9.83028786686167 19.231519603494213 12.0881479659914 1 0 0
22 1 3 -0.20524 14.48650477954084 17.29022334824141 13.54969011562053 1 0 0
179 1 3 -0.20524 8.856491586518192 25.154452100298165 9.249101891193325 1 0 0
21 1 2 0.25977 13.979101959126037 18.111986847634057 14.550131715563673 1 0 0
137 1 3 -0.20524 7.72776942840853 22.55521573296199 15.477730932366018 1 0 -1
175 1 1 0.03809 9.350191441429706 22.719042082655744 8.738015589216817 1 0 0
511 1 1 0.03809 17.01568600625065 24.85262262858579 15.22084266643705 -1 0 0
176 1 2 0.07454 7.640016951408382 23.78525417049645 10.978016295732951 1 0 0
174 1 1 0.03809 7.890595836527297 22.034951201412134 9.282226361034617 1 0 0
181 1 1 0.03809 8.322483142840307 22.90862044988973 11.121546728756924 1 0 0
184 1 3 -0.20524 8.078143294780434 25.968794749701086 11.733018171532498 1 0 0
570 1 1 0.03809 26.14527618246721 20.482016214026757 13.655978069435333 -1 1 0
24 1 1 0.03809 15.686471404536315 19.402738705679432 15.280869530637212 1 0 0
18 1 1 0.03809 13.338944355934682 20.223572382495433 14.556675314380414 1 0 0
23 1 3 -0.20524 12.971825770990709 17.367015367714686 15.220653520415057 1 0 0
20 1 2 0.07454 15.168325890042691 18.565953203532906 15.53469439908843 1 0 0
189 1 2 0.25977 6.701239188160229 25.471933553523233 14.07761649899312 1 0 0
190 1 3 -0.20524 25.71697967814136 25.09576262040502 15.244897772454298 0 0 0
94 1 3 -0.20524 13.23796315679202 17.31270391034834 8.942841467368952 1 0 0
180 1 1 0.03809 6.608014885780991 23.43961635466631 11.113384855050096 1 0 0
571 1 1 0.03809 7.0140586584129645 18.80676394189964 13.395934257743688 0 1 0
29 1 3 -0.20524 16.580679757958368 16.696642199403534 15.019804803900755 1 0 0
171 1 2 0.25977 7.70329182327114 22.735248562199953 7.269048652019738 1 0 0
92 1 2 0.07454 14.508562781770188 17.69282769695206 7.031844455920406 1 0 0
100 1 3 -0.20524 13.426137082578624 19.904110276287295 6.797681999619574 1 0 0
27 1 2 0.25977 15.85045003369903 17.288194332538186 16.09453229818929 1 0 0
96 1 1 0.03809 14.93611312576157 18.2454596834274 7.9026291374876445 1 0 0
554 1 2 0.07454 22.792824786300095 16.971555483730654 16.10134313595549 -1 1 0
561 1 2 0.25977 24.271967021200258 16.746946935066397 15.710985971544385 -1 1 0
448 1 3 -0.20524 20.85548303217461 26.07261450941761 13.438996881862712 -1 0 0
308 1 2 0.07454 23.11210532491544 25.27726279683733 10.099994196467767 0 0 0
312 1 1 0.03809 24.181471749511328 24.96403872309319 9.844932942475143 0 0 0
313 1 1 0.03809 22.91242242953997 24.8051816388608 11.163002488644231 0 0 0
480 1 1 0.03809 16.357223730818866 24.698886617439644 8.949476816231138 -1 0 0
481 1 1 0.03809 16.507379514078586 23.373528808713974 7.720731957361529 -1 0 0
178 1 3 -0.20524 6.748526261269693 24.70828293866234 9.023816513173443 1 0 0
575 1 3 -0.20524 24.430584517805478 20.830715625079467 11.892237782205374 -1 1 0
574 1 3 -0.20524 26.262617412741506 19.96826261780631 11.17591588065361 -1 1 0
449 1 3 -0.20524 20.183797599780895 6.720440353125753 15.533939752449914 -1 1 0
565 1 1 0.03809 26.075285126453952 17.837266385769386 15.523230162627438 -1 1 0
560 1 2 0.07454 25.05221810609712 18.10481655821127 15.784973099718856 -1 1 0
569 1 3 -0.20524 23.50172241901988 18.927165944938906 13.935520094719541 -1 1 0
567 1 2 0.25977 24.72965584541146 19.237961158649064 14.540118819937543 -1 1 0
191 1 3 -0.20524 25.375589436775243 25.54633581748098 13.189979686419402 0 0 0
475 1 1 0.03809 16.3263326248453 21.96731059406642 11.08845687326619 -1 0 0
576 1 1 0.03809 25.08733641365575 17.51019557423281 11.665927544670543 -1 1 0
323 1 3 -0.20524 18.62847445976105 25.240230149622654 7.8393268082163985 0 0 0
568 1 3 -0.20524 24.564636560465676 20.5127809111614 15.028637313634134 -1 1 0
474 1 1 0.03809 16.73866219149202 21.175078070715198 9.717184437068804 -1 0 0
470 1 2 0.07454 17.223173011809344 21.82176786866729 10.46278868086199 -1 0 0
473 1 3 -0.20524 19.41234120127291 21.136027557087743 10.24562144850927 -1 0 0
478 1 3 -0.20524 18.299036127293355 23.02712406169713 8.644657120603512 -1 0 0
479 1 3 -0.20524 17.705274566717772 24.076497248734267 10.587746289331381 -1 0 0
477 1 2 0.25977 17.438278832836055 23.056145850754262 9.651211651608378 -1 0 0
471 1 2 0.25977 18.431034262501477 21.209217976123064 11.28180218117388 -1 0 0
472 1 3 -0.20524 18.01417694858925 19.940788063902303 11.774880880969137 -1 0 0
469 1 1 0.03809 20.213310869523 21.743070240816607 12.118695833477172 -1 0 0
468 1 1 0.03809 19.087927913498646 23.048051693388725 11.927180707812385 -1 0 0
447 1 2 0.25977 21.250542364907798 6.824610109496856 14.68325279604965 -1 1 0
450 1 1 0.03809 23.04922140568032 25.51146909495997 14.299329164558443 -1 0 0
446 1 2 0.07454 22.46894421405811 25.76278950288465 15.154719348468177 -1 0 0
582 1 1 0.03809 22.23992504876783 17.693533702270646 9.859505704526772 -1 1 0
583 1 1 0.03809 23.061109161504223 17.455738893813923 8.269726508816476 -1 1 0
578 1 2 0.07454 23.14440085841781 17.322256597626627 9.36838805048378 -1 1 0
581 1 3 -0.20524 24.373986231971003 19.441609264987903 9.01789948914554 -1 1 0
577 1 1 0.03809 23.581210015443794 18.20292779705239 11.566696075303838 -1 1 0
580 1 3 -0.20524 25.4972958952038 17.485851229998726 9.193094283685383 -1 1 0
579 1 2 0.25977 24.439634636330407 18.18884505963606 9.72696567840056 -1 1 0
572 1 2 0.07454 24.5506053435911 18.40272874348136 11.237531839762358 -1 1 0
566 1 2 0.07454 25.827196142951017 19.480126826619994 13.433396940183291 -1 1 0
573 1 2 0.25977 25.26181793173932 19.655774193212153 11.985636772454292 -1 1 0
453 1 2 0.25977 22.344527390451482 24.6572389961131 16.25565453317618 -1 0 0
317 1 3 -0.20524 22.881914485830027 24.663233407732676 7.787911656884705 0 0 0
467 1 3 -0.20524 19.362530916887714 20.673289260275496 14.212287650140102 -1 0 0
315 1 2 0.25977 22.2500620276666 24.548136969291633 8.975068305875114 0 0 0
314 1 2 0.07454 20.739840276033167 24.98807174029215 8.861974613629554 0 0 0
466 1 3 -0.20524 17.46606281500057 21.637026328290933 14.138747616706318 -1 0 0
465 1 2 0.25977 18.827677100398024 21.81723131619451 13.862566979448308 -1 0 0
316 1 3 -0.20524 22.184118814821886 23.094585568788354 9.228248677350578 0 0 0
464 1 2 0.07454 19.09886917431249 22.040630574300266 12.338480160764949 -1 0 0
459 1 2 0.25977 20.530355167559726 22.500041626901844 15.517015334328388 -1 0 0
463 1 1 0.03809 19.428008751593293 23.845779368588975 14.056052174672278 -1 0 0
458 1 2 0.07454 19.301720451130144 22.957097407887346 14.764387303317868 -1 0 0
462 1 1 0.03809 18.476269249624444 23.261460990213404 15.363493128669944 -1 0 0
461 1 3 -0.20524 21.459208522840427 22.20826667699604 14.557200701902092 -1 0 0
318 1 1 0.03809 20.315418680827985 24.126339634652737 9.324825129326959 0 0 0
321 1 2 0.25977 20.06161457831891 25.310739319736193 7.5822815614745505 0 0 0
164 1 2 0.07454 26.12666051171646 22.037121953249454 7.1978116031243 0 0 0
169 1 1 0.03809 6.7650618775830225 20.9626688931264 7.121987413306882 1 0 0
168 1 1 0.03809 25.642636975661805 22.236106238818238 8.200747123858957 0 0 0
558 1 1 0.03809 22.643417050572722 18.183742298324773 16.08750570404685 -1 1 0
451 1 1 0.03809 23.161116930256636 6.808827505865043 15.507573049558625 -1 1 0
139 1 1 0.03809 25.117120264972133 22.149429851169934 15.974834635519242 0 0 -1
325 1 1 0.03809 20.755938936908542 23.43394039150378 6.734756881869053 0 0 0
163 1 1 0.03809 23.754896132539635 20.94051491251373 7.069859274971009 0 0 0
370 1 3 -0.20524 9.088173311820345 14.915172814383357 22.769533604233356 0 1 -1
199 1 1 0.03809 8.229633645594816 7.626276233225 16.775148321657245 1 1 0
516 1 1 0.03809 15.631961409599722 7.131253642612095 16.961680885122917 -1 1 0
361 1 1 0.03809 10.99622648835528 14.032747812754614 26.09812960617201 0 1 -1
355 1 1 0.03809 11.529351110386965 12.142101739229588 22.929000915245474 0 1 -1
360 1 1 0.03809 10.09270276130889 13.670749381317478 24.79792637125435 0 1 -1
356 1 2 0.07454 11.089098603589854 13.802980967891848 25.04690285603802 0 1 -1
359 1 3 -0.20524 11.134375906149003 11.535427973107566 25.72529486537996 0 1 -1
369 1 2 0.25977 9.265630587149868 16.2461012323778 23.18253202885217 0 1 -1
362 1 2 0.07454 10.57513774310872 16.248129759964343 24.17665359129946 0 1 -1
350 1 2 0.07454 12.12414783121662 11.63495182506653 23.63714619815105 0 1 -1
354 1 1 0.03809 13.192008335092359 11.746136569735212 23.363224999698602 0 1 -1
353 1 3 -0.20524 11.642268352294723 9.841523999755783 22.21153556116297 0 1 -1
349 1 1 0.03809 13.747473239427764 9.823009482344267 24.671189824370803 0 1 -1
351 1 2 0.25977 11.735873049041253 10.08263862082407 23.562147681253517 0 1 -1
357 1 2 0.25977 11.848706415043786 12.36935277164226 24.925950281489847 0 1 -1
363 1 2 0.25977 11.495050338686685 14.998457240145266 24.182231601163803 0 1 -1
348 1 1 0.03809 12.720003000784192 8.520630718154369 24.994122714000103 0 1 -1
59 1 3 -0.20524 14.912940563934127 9.774167060682775 17.58959116870615 1 0 0
352 1 3 -0.20524 10.438037119010788 9.69860858101934 24.14609084063239 0 1 -1
344 1 2 0.07454 12.976659388651548 9.262025612160834 24.1660932872953 0 1 -1
340 1 3 -0.20524 15.103887498595867 6.681184440424094 21.359713373119682 0 1 -1
57 1 2 0.25977 14.333616045537863 9.741152634317029 16.34328408197463 1 0 0
50 1 2 0.07454 12.865172559761545 9.617347889637934 16.58538326042093 1 0 0
55 1 1 0.03809 12.284632960051283 9.073871152968806 15.790350970274456 1 0 0
358 1 3 -0.20524 13.138505653410839 12.588887791061286 25.48453702134161 0 1 -1
263 1 3 -0.20524 8.587458762079898 15.220975269591525 16.99886249439503 1 1 0
261 1 2 0.25977 8.251159707937045 13.898406164135217 16.745053643792442 1 1 0
262 1 3 -0.20524 9.369197965553118 13.17160751514088 17.069727734177683 1 1 0
347 1 3 -0.20524 14.274408351218106 9.151358851316472 22.106282681979692 0 1 -1
345 1 2 0.25977 13.681545787242513 8.408998061742443 23.038451782856505 0 1 -1
338 1 2 0.07454 14.848328726198792 7.638039710684477 23.633419509935 0 1 -1
254 1 2 0.07454 6.950958392436271 13.390319535618806 17.578307042075174 1 1 0
204 1 1 0.03809 11.342160279705208 6.8351384899122625 18.4183356378815 1 1 0
339 1 2 0.25977 15.642527379302974 6.857599008991053 22.586468679679275 0 1 -1
346 1 3 -0.20524 12.843889367113684 7.4236295399567105 22.522196138476716 0 1 -1
52 1 3 -0.20524 11.46632775897559 11.546531916102163 16.453112517971586 1 0 0
53 1 3 -0.20524 10.827465657127028 10.155004225389138 17.97714058011398 1 0 0
51 1 2 0.25977 11.953914154078372 10.686033693718201 17.353489189964368 1 0 0
44 1 2 0.07454 12.54874871423738 11.405376692220461 18.53090533770981 1 0 0
48 1 1 0.03809 13.139012287409521 10.751923220982237 19.1845029265452 1 0 0
249 1 2 0.25977 8.236844834142895 11.7277910200432 20.97390165982604 1 1 0
251 1 3 -0.20524 9.169626654829976 12.284342398770026 21.84801609534563 1 1 0
248 1 2 0.07454 8.12931461737958 12.52930380319749 19.707741351732516 1 1 0
253 1 1 0.03809 9.074021481436272 12.549157149849913 19.28130063144311 1 1 0
252 1 1 0.03809 8.210421779232348 13.619264927835054 19.97752317819298 1 1 0
45 1 2 0.25977 13.310697787924898 12.697473618490038 18.311998561109824 1 0 0
47 1 3 -0.20524 12.912769445012085 13.324687091882254 17.142299506687376 1 0 0
205 1 1 0.03809 9.931452516309307 7.892473718235299 18.710220864881922 1 1 0
46 1 3 -0.20524 14.655420290501544 12.487575998980688 18.095172123511794 1 0 0
54 1 1 0.03809 12.787367130595454 8.685190482564822 17.37851146823423 1 0 0
49 1 1 0.03809 11.640251978229738 11.778411595595614 18.991266562186542 1 0 0
211 1 1 0.03809 8.84437406613165 7.808603716800003 20.261884550750572 1 1 0
200 1 2 0.07454 10.2278779620042 6.952749129322573 18.26043483951233 1 1 0
255 1 2 0.25977 7.105240671382437 12.07767887045166 18.539250635341034 1 1 0
257 1 3 -0.20524 7.731203771071619 11.047614020382163 17.909756619808146 1 1 0
364 1 3 -0.20524 11.686628508413461 14.57752207238571 22.84739928172618 0 1 -1
38 1 2 0.07454 13.169743044215059 13.688661029620496 19.627289187454426 1 0 0
43 1 1 0.03809 12.653173188859837 13.241085310285616 20.52334714987612 1 0 0
377 1 3 -0.20524 26.13695471185143 15.200482491594276 24.272410530199487 -1 1 -1
42 1 1 0.03809 14.233389585114773 13.830341473315183 19.815536942159916 1 0 0
365 1 3 -0.20524 12.791154607275327 15.227465257305354 24.590388704075 0 1 -1
40 1 3 -0.20524 11.193331063554137 15.041717859801892 19.57235405451714 1 0 0
37 1 1 0.03809 12.604071137201739 15.350880426216575 17.375775091920747 1 0 0
30 1 1 0.03809 14.147697298614023 15.789863744672719 16.036945255442483 1 0 0
242 1 2 0.07454 6.928280087574748 11.775191031739528 21.754126399991904 1 1 0
247 1 1 0.03809 6.712663699336538 12.821199273354843 21.85137079068367 1 1 0
243 1 2 0.25977 6.690952477833317 11.09041316014735 23.158279967854064 1 1 0
245 1 3 -0.20524 7.749708678818568 11.419627091068747 23.957887847422334 1 1 0
250 1 3 -0.20524 8.633146168715692 10.481072043195818 20.63205634566996 1 1 0
244 1 3 -0.20524 6.699830449386243 9.720877628798718 22.974731719544724 1 1 0
406 1 3 -0.20524 16.152433290565078 14.333627632408106 23.794610492142727 -1 1 -1
217 1 1 0.03809 6.887011018922159 6.950326279410269 19.077526168443875 1 1 0
216 1 1 0.03809 26.242101123996793 7.790545179733698 20.641029158476858 0 1 0
90 1 1 0.03809 13.88492267732613 14.617705233584681 7.326633657817692 1 0 0
201 1 2 0.25977 10.122626719464952 6.6331567463615695 16.711316259274156 1 1 0