# Interface Force Field (IFF) parameters for PVDF
# Units: real

602 atoms
601 bonds
1200 angles
1791 dihedrals

3 atom types
3 bond types
6 angle types
5 dihedral types

0.000000  32.852000 xlo xhi
0.000000  32.852000 ylo yhi
0.000000  32.852000 zlo zhi

Masses

1 1.0080E+00 # H
2 1.2011E+01 # C
3 1.8998E+01 # F


Pair Coeffs

1 0.02000  2.9950  # H H
2 0.05400  4.0100  # C C
3 0.05980  3.2000  # F F


Bond Coeffs

1  1.1010 345.0000 -691.8900 844.6000 # C H
2  1.5300 299.6700 -501.7700 679.8100 # C C
3  1.3900 403.0320  0.0000   0.0000   # C F


Angle Coeffs

1  110.7700 41.4530 -10.6040  5.1290 # C C H
2  109.2000 68.3715  0.0000   0.0000 # C C F
3  108.5010 57.5760  0.0000   0.0000 # H C F
4  109.1026 71.9700  0.0000   0.0000 # F C F
5  107.6600 39.6410 -12.9210 -2.4318 # H C H
6  112.6700 39.5160 -7.4430  -9.5583 # C C C


Dihedral Coeffs

1 2  0.0514 2 0.0 -0.1430 3 0.0               # C C C C
2 1  0.1500 3 0.0                             # C C C F
3 2  0.0316 2 0.0 -0.1681 3 0.0               # C C C H
4 1 -0.1000 3 0.0                             # H C C F
5 3 -0.1432 1 0.0  0.0617 2 0.0 -0.1083 3 0.0 # H C C H


Atoms

       1        1        1  0.10196000   47.92500    2.74100   17.83200    0    0    0
       2        1        2  0.07149000   45.76200    2.71800   18.14200    0    0    0
       3        1        2  0.24476000   47.03500    3.27400   17.49800    0    0    0
       4        1        3 -0.20905000   46.96700    3.15400   16.17300    0    0    0
       5        1        3 -0.20905000   47.18900    4.55700   17.82000    0    0    0
       6        1        1  0.03779000   44.89200    3.31600   17.86800    0    0    0
       7        1        1  0.03779000   45.57800    1.69200   17.82400    0    0    0
       8        1        2  0.07452000   44.51400    2.53000   20.33800    0    0    0
       9        1        2  0.25949000   45.87500    2.72400   19.66400    0    0    0
      10        1        3 -0.20526000   46.40200    3.89300   20.02400    0    0    0
      11        1        3 -0.20526000   46.70200    1.73900   20.01000    0    0    0
      12        1        1  0.03809000   44.06500    1.58000   20.04700    0    0    0
      13        1        1  0.03809000   44.61000    2.53700   21.42300    0    0    0
      14        1        2  0.07454000   44.21100    5.02300   20.01100    0    0    0
      15        1        2  0.25977000   43.54800    3.64500   19.94500    0    0    0
      16        1        3 -0.20524000   42.51300    3.59400   20.78200    0    0    0
      17        1        3 -0.20524000   43.12900    3.39700   18.70600    0    0    0
      18        1        1  0.03809000   44.95000    5.14100   19.21800    0    0    0
      19        1        1  0.03809000   43.47300    5.81800   19.90300    0    0    0
      20        1        2  0.07454000   44.06000    4.76500   22.52600    0    0    0
      21        1        2  0.25977000   44.92200    5.22300   21.34700    0    0    0
      22        1        3 -0.20524000   45.20500    6.51900   21.46300    0    0    0
      23        1        3 -0.20524000   46.05400    4.52300   21.30900    0    0    0
      24        1        1  0.03809000   44.03000    3.67700   22.59100    0    0    0
      25        1        1  0.03809000   44.45100    5.14700   23.46900    0    0    0
      26        1        2  0.07454000   42.50600    6.75900   22.68900    0    0    0
      27        1        2  0.25977000   42.62500    5.26500   22.37800    0    0    0
      28        1        3 -0.20524000   41.86500    4.56100   23.21500    0    0    0
      29        1        3 -0.20524000   42.24200    5.02600   21.12500    0    0    0
      30        1        1  0.03809000   43.12900    7.35000   22.01700    0    0    0
      31        1        1  0.03809000   41.47600    7.10000   22.58000    0    0    0
      32        1        2  0.07454000   41.81300    6.84500   25.12300    0    0    0
      33        1        2  0.25977000   42.94900    7.05400   24.11900    0    0    0
      34        1        3 -0.20524000   43.36700    8.31800   24.15800    0    0    0
      35        1        3 -0.20524000   43.96600    6.24200   24.40200    0    0    0
      36        1        1  0.03809000   41.45300    5.81600   25.09900    0    0    0
      37        1        1  0.03809000   42.14300    7.06000   26.14000    0    0    0
      38        1        2  0.07454000   41.08700    9.19000   24.50200    0    0    0
      39        1        2  0.25977000   40.63300    7.76100   24.81000    0    0    0
      40        1        3 -0.20524000   39.82600    7.75500   25.87000    0    0    0
      41        1        3 -0.20524000   39.99100    7.24800   23.76200    0    0    0
      42        1        1  0.03809000   41.75500    9.21200   23.64100    0    0    0
      43        1        1  0.03809000   40.23400    9.83200   24.28100    0    0    0
      44        1        2  0.07454000   40.88000   10.18900   26.82000    0    0    0
      45        1        2  0.25977000   41.83300    9.79300   25.68900    0    0    0
      46        1        3 -0.20524000   42.49200   10.86300   25.24900    0    0    0
      47        1        3 -0.20524000   42.70400    8.88300   26.12200    0    0    0
      48        1        1  0.03809000   40.39200    9.31200   27.24600    0    0    0
      49        1        1  0.03809000   41.41500   10.69800   27.62200    0    0    0
      50        1        2  0.07454000   40.32700   12.54600   26.07600    0    0    0
      51        1        2  0.25977000   39.79300   11.13100   26.31100    0    0    0
      52        1        3 -0.20524000   38.82100   11.15400   27.22200    0    0    0
      53        1        3 -0.20524000   39.32100   10.62500   25.17300    0    0    0
      54        1        1  0.03809000   39.54000   13.20600   25.71200    0    0    0
      55        1        1  0.03809000   40.72400   12.97300   26.99700    0    0    0
      56        1        2  0.07454000   41.35600   13.73600   24.09100    0    0    0
      57        1        2  0.25977000   41.44900   12.53900   25.04100    0    0    0
      58        1        3 -0.20524000   41.35700   11.40200   24.35400    0    0    0
      59        1        3 -0.20524000   42.60600   12.56600   25.70100    0    0    0
      60        1        1  0.03809000   41.59700   14.66600   24.60800    0    0    0
      61        1        1  0.03809000   42.04900   13.62800   23.25600    0    0    0
      62        1        2  0.07454000   38.90200   14.07200   24.61700    0    0    0
      63        1        2  0.25977000   39.94800   13.86900   23.51900    0    0    0
      64        1        3 -0.20524000   39.68400   12.75700   22.83500    0    0    0
      65        1        3 -0.20524000   39.94800   14.91000   22.68800    0    0    0
      66        1        1  0.03809000   38.10500   14.73700   24.28200    0    0    0
      67        1        1  0.03809000   38.44800   13.12400   24.90600    0    0    0
      68        1        2  0.07454000   39.49200   16.21900   25.82600    0    0    0
      69        1        2  0.25977000   39.53300   14.68900   25.86300    0    0    0
      70        1        3 -0.20524000   40.79400   14.26500   25.92700    0    0    0
      71        1        3 -0.20524000   38.86000   14.23900   26.92000    0    0    0
      72        1        1  0.03809000   39.69500   16.64000   26.81100    0    0    0
      73        1        1  0.03809000   40.23600   16.61300   25.13300    0    0    0
      74        1        2  0.07454000   37.86500   16.42300   23.89600    0    0    0
      75        1        2  0.25977000   38.12200   16.71600   25.37600    0    0    0
      76        1        3 -0.20524000   38.07700   18.02900   25.59700    0    0    0
      77        1        3 -0.20524000   37.20600   16.10900   26.12900    0    0    0
      78        1        1  0.03809000   38.52200   15.63200   23.53400    0    0    0
      79        1        1  0.03809000   36.83500   16.10600   23.73200    0    0    0
      80        1        2  0.07454000   37.29000   18.86200   23.52600    0    0    0
      81        1        2  0.25977000   38.11300   17.66500   23.04400    0    0    0
      82        1        3 -0.20524000   37.79000   17.36300   21.78800    0    0    0
      83        1        3 -0.20524000   39.41400   17.94600   23.11100    0    0    0
      84        1        1  0.03809000   37.47300   19.06300   24.58200    0    0    0
      85        1        1  0.03809000   37.54200   19.76200   22.96500    0    0    0
      86        1        2  0.07454000   35.30900   17.45400   24.23600    0    0    0
      87        1        2  0.25977000   35.79700   18.60200   23.35000    0    0    0
      88        1        3 -0.20524000   35.58700   18.31200   22.06700    0    0    0
      89        1        3 -0.20524000   35.15300   19.72600   23.66100    0    0    0
      90        1        1  0.03809000   35.69600   16.49700   23.88500    0    0    0
      91        1        1  0.03809000   35.63300   17.58900   25.26700    0    0    0
      92        1        2  0.07454000   33.14000   18.73100   24.51500    0    0    0
      93        1        2  0.25977000   33.78500   17.37200   24.23100    0    0    0
      94        1        3 -0.20524000   33.42500   16.49000   25.16200    0    0    0
      95        1        3 -0.20524000   33.40900   16.92800   23.03200    0    0    0
      96        1        1  0.03809000   33.28400   19.41500   23.67900    0    0    0
      97        1        1  0.03809000   32.06700   18.62700   24.68400    0    0    0
      98        1        2  0.07454000   33.12000   20.73500   26.06400    0    0    0
      99        1        2  0.25977000   33.74900   19.37300   25.75800    0    0    0
     100        1        3 -0.20524000   35.05600   19.51200   25.54000    0    0    0
     101        1        3 -0.20524000   33.55600   18.54000   26.77900    0    0    0
     102        1        1  0.03809000   33.50100   21.14100   27.00100    0    0    0
     103        1        1  0.03809000   33.33700   21.45300   25.27300    0    0    0
     104        1        2  0.07454000   30.99000   19.87200   24.99800    0    0    0
     105        1        2  0.25977000   31.60300   20.61800   26.18600    0    0    0
     106        1        3 -0.20524000   31.10800   21.85300   26.25500    0    0    0
     107        1        3 -0.20524000   31.33800   19.97100   27.31900    0    0    0
     108        1        1  0.03809000   30.94200   18.80000   25.19200    0    0    0
     109        1        1  0.03809000   29.97800   20.22200   24.79500    0    0    0
     110        1        2  0.07454000   31.09200   20.95900   22.71300    0    0    0
     111        1        2  0.25977000   31.82100   20.08300   23.73500    0    0    0
     112        1        3 -0.20524000   32.07300   18.88300   23.21300    0    0    0
     113        1        3 -0.20524000   32.96600   20.65800   24.09700    0    0    0
     114        1        1  0.03809000   30.79300   21.91000   23.15400    0    0    0
     115        1        1  0.03809000   31.73000   21.17300   21.85500    0    0    0
     116        1        2  0.07454000   28.84800   19.96100   23.33000    0    0    0
     117        1        2  0.25977000   29.83400   20.26500   22.20000    0    0    0
     118        1        3 -0.20524000   30.21100   19.13400   21.60500    0    0    0
     119        1        3 -0.20524000   29.26700   21.06900   21.30200    0    0    0
     120        1        1  0.03809000   28.67000   20.84500   23.94300    0    0    0
     121        1        1  0.03809000   27.88800   19.62900   22.93400    0    0    0
     122        1        2  0.07454000   29.31700   19.25800   25.71800    0    0    0
     123        1        2  0.25977000   29.38500   18.86100   24.24100    0    0    0
     124        1        3 -0.20524000   30.64800   18.62700   23.88800    0    0    0
     125        1        3 -0.20524000   28.65600   17.76700   24.02600    0    0    0
     126        1        1  0.03809000   30.16500   18.85400   26.27100    0    0    0
     127        1        1  0.03809000   29.32500   20.34200   25.83300    0    0    0
     128        1        2  0.07454000   27.69300   19.48600   27.64800    0    0    0
     129        1        2  0.25977000   28.04000   18.72800   26.36500    0    0    0
     130        1        3 -0.20524000   28.23000   17.43700   26.63300    0    0    0
     131        1        3 -0.20524000   27.05500   18.85500   25.47700    0    0    0
     132        1        1  0.03809000   27.20800   20.43600   27.42300    0    0    0
     133        1        1  0.03809000   27.01900   18.90500   28.27700    0    0    0
     134        1        2  0.07454000   29.68400   18.50500   28.86800    0    0    0
     135        1        2  0.25977000   28.95000   19.78500   28.46100    0    0    0
     136        1        3 -0.20524000   28.57800   20.46300   29.54500    0    0    0
     137        1        3 -0.20524000   29.74300   20.54900   27.71100    0    0    0
     138        1        1  0.03809000   29.75700   17.81100   28.02900    0    0    0
     139        1        1  0.03809000   30.69600   18.72500   29.21000    0    0    0
     140        1        2  0.07454000   29.43300   18.26300   31.37600    0    0    0
     141        1        2  0.25977000   28.95100   17.79300   30.00100    0    0    0
     142        1        3 -0.20524000   29.16600   16.48600   29.86300    0    0    0
     143        1        3 -0.20524000   27.65100   18.04600   29.86100    0    0    0
     144        1        1  0.03809000   30.44600   17.91400   31.57600    0    0    0
     145        1        1  0.03809000   29.43400   19.35100   31.44000    0    0    0
     146        1        2  0.07454000   27.08200   18.20400   32.31500    0    0    0
     147        1        2  0.25977000   28.52700   17.72900   32.48200    0    0    0
     148        1        3 -0.20524000   29.01700   18.15500   33.64500    0    0    0
     149        1        3 -0.20524000   28.58000   16.39900   32.44000    0    0    0
     150        1        1  0.03809000   26.72600   18.02500   31.30000    0    0    0
     151        1        1  0.03809000   26.41600   17.68100   33.00200    0    0    0
     152        1        2  0.07454000   28.24900   20.27000   33.20100    0    0    0
     153        1        2  0.25977000   26.96300   19.69900   32.59600    0    0    0
     154        1        3 -0.20524000   25.94500   19.87200   33.43700    0    0    0
     155        1        3 -0.20524000   26.69200   20.30600   31.44200    0    0    0
     156        1        1  0.03809000   28.39500   19.91000   34.22000    0    0    0
     157        1        1  0.03809000   29.12000   19.97900   32.61400    0    0    0
     158        1        2  0.07454000   26.96100   22.30500   33.98500    0    0    0
     159        1        2  0.25977000   28.20000   21.79400   33.24400    0    0    0
     160        1        3 -0.20524000   28.19600   22.23300   31.98700    0    0    0
     161        1        3 -0.20524000   29.30500   22.21600   33.85700    0    0    0
     162        1        1  0.03809000   26.75100   21.69500   34.86300    0    0    0
     163        1        1  0.03809000   27.09900   23.33400   34.31600    0    0    0
     164        1        2  0.07454000   25.80800   23.31200   31.96700    0    0    0
     165        1        2  0.25977000   25.73200   22.26500   33.08100    0    0    0
     166        1        3 -0.20524000   24.66300   22.48500   33.84400    0    0    0
     167        1        3 -0.20524000   25.65700   21.04300   32.55600    0    0    0
     168        1        1  0.03809000   26.51600   24.10200   32.22000    0    0    0
     169        1        1  0.03809000   26.12800   22.86200   31.02700    0    0    0
     170        1        2  0.07454000   23.81700   24.44800   33.04400    0    0    0
     171        1        2  0.25977000   24.44600   23.96100   31.73700    0    0    0
     172        1        3 -0.20524000   23.65900   23.05300   31.16000    0    0    0
     173        1        3 -0.20524000   24.62300   24.98600   30.90400    0    0    0
     174        1        1  0.03809000   22.93600   25.06100   32.85100    0    0    0
     175        1        1  0.03809000   23.51000   23.60800   33.66800    0    0    0
     176        1        2  0.07454000   24.98400   26.68700   33.24600    0    0    0
     177        1        2  0.25977000   24.80700   25.28900   33.84500    0    0    0
     178        1        3 -0.20524000   25.97200   24.64300   33.85100    0    0    0
     179        1        3 -0.20524000   24.34400   25.38000   35.09000    0    0    0
     180        1        1  0.03809000   24.04800   27.05200   32.82200    0    0    0
     181        1        1  0.03809000   25.31000   27.39900   34.00400    0    0    0
     182        1        2  0.07454000   25.39000   26.51300   30.75200    0    0    0
     183        1        2  0.25977000   26.02900   26.67400   32.13400    0    0    0
     184        1        3 -0.20524000   26.86100   25.66200   32.37400    0    0    0
     185        1        3 -0.20524000   26.69900   27.82400   32.19700    0    0    0
     186        1        1  0.03809000   25.69200   27.32000   30.08400    0    0    0
     187        1        1  0.03809000   25.68400   25.56900   30.29200    0    0    0
     188        1        2  0.07454000   23.34300   27.88700   31.33000    0    0    0
     189        1        2  0.25977000   23.86700   26.53100   30.85100    0    0    0
     190        1        3 -0.20524000   23.50700   25.57300   31.70300    0    0    0
     191        1        3 -0.20524000   23.38200   26.25400   29.64200    0    0    0
     192        1        1  0.03809000   22.25300   27.91400   31.31100    0    0    0
     193        1        1  0.03809000   23.66500   28.09300   32.35100    0    0    0
     194        1        2  0.07454000   23.34400   30.38300   30.90000    0    0    0
     195        1        2  0.25977000   23.85600   29.01500   30.44000    0    0    0
     196        1        3 -0.20524000   23.44500   28.76700   29.19700    0    0    0
     197        1        3 -0.20524000   25.18700   28.98700   30.48000    0    0    0
     198        1        1  0.03809000   23.73700   30.63700   31.88400    0    0    0
     199        1        1  0.03809000   23.64500   31.16700   30.20500    0    0    0
     200        1        2  0.07454000   21.17200   29.85300   29.71000    0    0    0
     201        1        2  0.25977000   21.82100   30.39300   30.98700    0    0    0
     202        1        3 -0.20524000   21.43700   31.65100   31.19900    0    0    0
     203        1        3 -0.20524000   21.47200   29.64200   32.03100    0    0    0
     204        1        1  0.03809000   21.54800   28.85800   29.47000    0    0    0
     205        1        1  0.03809000   20.08900   29.78400   29.82000    0    0    0
     206        1        2  0.07454000   20.93300   32.18200   28.74500    0    0    0
     207        1        2  0.25977000   21.46600   30.76400   28.52300    0    0    0
     208        1        3 -0.20524000   20.89400   30.22400   27.44800    0    0    0
     209        1        3 -0.20524000   22.78700   30.79300   28.35400    0    0    0
     210        1        1  0.03809000   21.56000   32.73000   29.44900    0    0    0
     211        1        1  0.03809000   20.90800   32.74200   27.81000    0    0    0
     212        1        2  0.07454000   18.56900   31.32900   28.42600    0    0    0
     213        1        2  0.25977000   19.51500   32.14800   29.30900    0    0    0
     214        1        3 -0.20524000   19.08600   33.40600   29.39500    0    0    0
     215        1        3 -0.20524000   19.57900   31.61700   30.52800    0    0    0
     216        1        1  0.03809000   18.74900   30.26000   28.54600    0    0    0
     217        1        1  0.03809000   17.52800   31.52500   28.68200    0    0    0
     218        1        2  0.07454000   18.85400   33.18600   26.72800    0    0    0
     219        1        2  0.25977000   18.76400   31.67400   26.95300    0    0    0
     220        1        3 -0.20524000   17.72900   31.17200   26.28100    0    0    0
     221        1        3 -0.20524000   19.88500   31.08300   26.54500    0    0    0
     222        1        1  0.03809000   18.13900   33.71800   27.35500    0    0    0
     223        1        1  0.03809000   19.85000   33.55800   26.96400    0    0    0
     224        1        2  0.07454000   19.67100   33.07900   24.33300    0    0    0
     225        1        2  0.25977000   18.55400   33.53900   25.27300    0    0    0
     226        1        3 -0.20524000   18.41000   34.86100   25.20100    0    0    0
     227        1        3 -0.20524000   17.40600   32.94900   24.94400    0    0    0
     228        1        1  0.03809000   19.44200   33.33600   23.29800    0    0    0
     229        1        1  0.03809000   20.62000   33.54700   24.59400    0    0    0
     230        1        2  0.07454000   21.11400   31.18500   25.19600    0    0    0
     231        1        2  0.25977000   19.85800   31.56600   24.40800    0    0    0
     232        1        3 -0.20524000   19.94300   31.10800   23.16100    0    0    0
     233        1        3 -0.20524000   18.77700   31.05500   24.99500    0    0    0
     234        1        1  0.03809000   21.23900   31.82700   26.06800    0    0    0
     235        1        1  0.03809000   21.06000   30.15300   25.54400    0    0    0
     236        1        2  0.07454000   22.62100   32.77700   23.92700    0    0    0
     237        1        2  0.25977000   22.36300   31.32300   24.32900    0    0    0
     238        1        3 -0.20524000   22.18400   30.57300   23.24300    0    0    0
     239        1        3 -0.20524000   23.39300   30.85200   25.02900    0    0    0
     240        1        1  0.03809000   22.25100   33.46500   24.68800    0    0    0
     241        1        1  0.03809000   23.68700   32.96400   23.79500    0    0    0
     242        1        2  0.07454000   22.49200   32.31000   21.44100    0    0    0
     243        1        2  0.25977000   21.92000   33.11200   22.61400    0    0    0
     244        1        3 -0.20524000   22.07500   34.41700   22.39500    0    0    0
     245        1        3 -0.20524000   20.62500   32.83900   22.76600    0    0    0
     246        1        1  0.03809000   22.15400   31.27400   21.47300    0    0    0
     247        1        1  0.03809000   22.18100   32.73600   20.48700    0    0    0
     248        1        2  0.07454000   24.55600   31.79700   22.81700    0    0    0
     249        1        2  0.25977000   24.01800   32.30700   21.47700    0    0    0
     250        1        3 -0.20524000   24.42900   33.55600   21.26500    0    0    0
     251        1        3 -0.20524000   24.44300   31.52600   20.48600    0    0    0
     252        1        1  0.03809000   23.74400   31.61700   23.52200    0    0    0
     253        1        1  0.03809000   25.10300   30.86200   22.68900    0    0    0
     254        1        2  0.07454000   24.76700   33.80100   24.35000    0    0    0
     255        1        2  0.25977000   25.50600   32.81300   23.44400    0    0    0
     256        1        3 -0.20524000   26.11000   33.46600   22.45300    0    0    0
     257        1        3 -0.20524000   26.41200   32.13700   24.14800    0    0    0
     258        1        1  0.03809000   24.01600   34.36000   23.79100    0    0    0
     259        1        1  0.03809000   24.26100   33.28300   25.16500    0    0    0
     260        1        2  0.07454000   26.46800   35.62200   23.89600    0    0    0
     261        1        2  0.25977000   25.73600   34.80600   24.96600    0    0    0
     262        1        3 -0.20524000   26.61300   34.12300   25.70000    0    0    0
     263        1        3 -0.20524000   25.03200   35.61500   25.75600    0    0    0
     264        1        1  0.03809000   27.21800   36.27200   24.34500    0    0    0
     265        1        1  0.03809000   26.97300   34.96900   23.18300    0    0    0
     266        1        2  0.07454000   24.49300   35.66600   22.31100    0    0    0
     267        1        2  0.25977000   25.49200   36.49900   23.11800    0    0    0
     268        1        3 -0.20524000   26.20700   37.27300   22.30300    0    0    0
     269        1        3 -0.20524000   24.84500   37.26200   23.99900    0    0    0
     270        1        1  0.03809000   24.96000   34.75700   21.93000    0    0    0
     271        1        1  0.03809000   23.64100   35.37400   22.92400    0    0    0
     272        1        2  0.07454000   23.24700   37.73700   21.55500    0    0    0
     273        1        2  0.25977000   23.96300   36.45600   21.11800    0    0    0
     274        1        3 -0.20524000   23.12300   35.66600   20.45200    0    0    0
     275        1        3 -0.20524000   25.00200   36.75600   20.33900    0    0    0
     276        1        1  0.03809000   23.95400   38.46600   21.95100    0    0    0
     277        1        1  0.03809000   22.72300   38.19800   20.71700    0    0    0
     278        1        2  0.07454000   21.17000   38.55000   22.75400    0    0    0
     279        1        2  0.25977000   22.21900   37.44100   22.64300    0    0    0
     280        1        3 -0.20524000   22.87600   37.31600   23.79500    0    0    0
     281        1        3 -0.20524000   21.63200   36.28400   22.34000    0    0    0
     282        1        1  0.03809000   20.44200   38.32500   23.53500    0    0    0
     283        1        1  0.03809000   21.63500   39.50600   22.99500    0    0    0
     284        1        2  0.07454000   21.35900   38.83600   20.24500    0    0    0
     285        1        2  0.25977000   20.41100   38.71600   21.44100    0    0    0
     286        1        3 -0.20524000   19.66200   39.81200   21.54300    0    0    0
     287        1        3 -0.20524000   19.62200   37.65200   21.29400    0    0    0
     288        1        1  0.03809000   22.17900   39.52100   20.46300    0    0    0
     289        1        1  0.03809000   21.79000   37.86900   19.98800    0    0    0
     290        1        2  0.07454000   19.62600   40.46700   19.37900    0    0    0
     291        1        2  0.25977000   20.62300   39.36300   19.01700    0    0    0
     292        1        3 -0.20524000   19.98500   38.33600   18.45800    0    0    0
     293        1        3 -0.20524000   21.53700   39.83100   18.16800    0    0    0
     294        1        1  0.03809000   19.30600   41.01200   18.49000    0    0    0
     295        1        1  0.03809000   18.73800   40.05300   19.85600    0    0    0
     296        1        2  0.07454000   19.19100   42.27700   21.09600    0    0    0
     297        1        2  0.25977000   20.25200   41.47100   20.34300    0    0    0
     298        1        3 -0.20524000   21.02700   42.28600   19.63000    0    0    0
     299        1        3 -0.20524000   21.00400   40.78700   21.20400    0    0    0
     300        1        1  0.03809000   18.78100   41.70400   21.92800    0    0    0
     301        1        1  0.03809000   19.61200   43.19900   21.49800    0    0    0
     302        1        2  0.07454000   18.48300   43.60300   19.05700    0    0    0
     303        1        2  0.25977000   18.03600   42.65300   20.17200    0    0    0
     304        1        3 -0.20524000   17.09600   43.23200   20.91700    0    0    0
     305        1        3 -0.20524000   17.55500   41.52700   19.64800    0    0    0
     306        1        1  0.03809000   18.89500   43.05000   18.21300    0    0    0
     307        1        1  0.03809000   17.64600   44.19900   18.69200    0    0    0
     308        1        2  0.07454000   19.15000   45.24400   20.86700    0    0    0
     309        1        2  0.25977000   19.55800   44.56300   19.55900    0    0    0
     310        1        3 -0.20524000   19.75700   45.47700   18.61000    0    0    0
     311        1        3 -0.20524000   20.67500   43.86000   19.73700    0    0    0
     312        1        1  0.03809000   18.80700   44.51200   21.59900    0    0    0
     313        1        1  0.03809000   19.98800   45.78800   21.30400    0    0    0
     314        1        2  0.07454000   18.48800   47.46600   19.84900    0    0    0
     315        1        2  0.25977000   18.01700   46.23900   20.63300    0    0    0
     316        1        3 -0.20524000   17.55200   46.60900   21.82600    0    0    0
     317        1        3 -0.20524000   17.05700   45.60600   19.96100    0    0    0
     318        1        1  0.03809000   18.71300   47.20700   18.81400    0    0    0
     319        1        1  0.03809000   17.72300   48.24300   19.84100    0    0    0
     320        1        2  0.07454000   19.44800   48.82400   21.75900    0    0    0
     321        1        2  0.25977000   19.75100   48.05800   20.46900    0    0    0
     322        1        3 -0.20524000   20.29800   48.87400   19.57000    0    0    0
     323        1        3 -0.20524000   20.58600   47.05100   20.72000    0    0    0
     324        1        1  0.03809000   19.24400   48.13900   22.58300    0    0    0
     325        1        1  0.03809000   20.29000   49.45400   22.04700    0    0    0
     326        1        2  0.07454000   18.47800   50.83300   20.56000    0    0    0
     327        1        2  0.25977000   18.22800   49.72400   21.58500    0    0    0
     328        1        3 -0.20524000   17.94400   50.25300   22.77300    0    0    0
     329        1        3 -0.20524000   17.21400   48.95600   21.18900    0    0    0
     330        1        1  0.03809000   18.63300   50.41900   19.56400    0    0    0
     331        1        1  0.03809000   17.63200   51.51900   20.51100    0    0    0