 vasp.6.4.2 20Jul23 (build Jan 06 2025 23:26:51) complex

 executed on             NODE date 2025.11.02  21:54:19
 running   12 mpi-ranks, with    1 threads/rank, on    1 nodes
 distrk:  each k-point on   12 cores,    1 groups
 distr:  one band on NCORE=  12 cores,    1 groups
