LAMMPS data file via write_data, version 29 Aug 2024, timestep = 4959, units = real

410 atoms
4 atom types

-66.0976 66.0976 xlo xhi
-66.0976 66.0976 ylo yhi
-66.0976 66.0976 zlo zhi

Masses

1 1.00794
2 12.0107
3 14.00674
4 15.9994

Atoms # charge

42 1 0.2572991142243123 10.228873432293787 -4.888757313814765 -12.574017207196821 0 0 0
123 1 0.04292639370408613 -12.838143513028811 3.1601976224503776 -14.801608850048636 0 0 0
106 4 -0.4741786851153184 -7.636298969995868 2.290104596569798 -13.33000809183507 0 0 0
107 2 0.2535318226120553 -9.08049814513062 2.569345888335207 -13.746666923609562 0 0 0
108 2 -0.05268596924270488 -9.737701894797473 1.6777040434654076 -14.601818339914038 0 0 0
109 2 0.003036490395383974 -11.080256471314334 1.8722610411266485 -14.98221576154389 0 0 0
110 2 -0.01700714134678863 -11.786202822530749 2.9999815704951334 -14.51391179978427 0 0 0
111 2 0.004851147818053723 -11.120812003248664 3.9302916943791115 -13.689950409862819 0 0 0
112 2 -0.07681861210070688 -9.773242723060196 3.7113354597450443 -13.319716782612142 0 0 0
119 1 0.08579152926412274 -9.195681704997256 0.7905714690280309 -14.970492713619658 0 0 0
120 1 0.04328180556466904 -11.576369257429224 1.144748183912869 -15.641684336689504 0 0 0
121 1 0.03971582066992817 -11.649648806748637 4.826518061988777 -13.332780826253341 0 0 0
122 1 0.04884732176287272 -9.27193822729556 4.47193929699888 -12.690712037640491 0 0 0
103 2 0.2515912703069574 -7.198278330452526 2.9609602322722566 -12.050532476351275 0 0 0
116 1 0.0899402650577463 -5.0927274972415315 2.6541703973748727 -12.474501377233354 0 0 0
55 4 -0.4288258535483068 8.533817797553848 -6.788510559571429 -11.554151715797516 0 0 0
73 1 0.08605976520290498 6.887092247497032 -6.249585760793967 -9.10057048606006 0 0 0
57 4 -0.4690538976410131 5.334580253248907 -5.392096589925996 -6.58798883882628 0 0 0
165 1 0.2676462176545199 2.9115653995480106 -0.10405175572256477 -10.554276314656796 0 0 0
169 2 0.04207722125972409 1.2917185123907498 -1.4702754679794166 -6.620338802264037 0 0 0
170 2 -0.04727960429917114 2.1087243468259613 -0.9566955688961976 -7.637520964795014 0 0 0
171 2 -0.06173490496267836 3.0922992151021074 -0.0013819241605881173 -7.422310953582937 0 0 0
173 3 -0.5574180772288938 3.2339273088360914 -0.6186573897611585 -9.754151871106485 0 0 0
174 2 0.5168258824885409 2.0747825522956784 -1.3497980620966352 -9.15430454763261 0 0 0
178 4 -0.3868925647587957 1.3216412950113035 -2.1842492912526534 -9.672025126797179 0 0 0
196 1 0.09195096888216817 0.5123181337193594 -2.2320210240174307 -6.7911950436333415 0 0 0
43 2 0.04563759059560916 8.91787620277106 -2.77259257903541 -8.74980015497966 0 0 0
44 2 -0.05290460948474746 7.9359840607778915 -3.190443132878409 -7.8456980710103785 0 0 0
45 2 -0.05647391045507685 7.226701901103631 -4.3688320102561065 -7.9890681115049835 0 0 0
46 2 0.04497454523432763 7.445396400222625 -5.3024300614308855 -9.007521473358738 0 0 0
47 2 -0.05372032711271027 8.452729718877025 -4.900735038437759 -9.895780034592258 0 0 0
48 2 -0.05299455208858871 9.133774861084264 -3.695113694230146 -9.786763520105685 0 0 0
49 2 0.5032349025435069 10.14183104367749 -3.5608431343137137 -10.988460472671143 0 0 0
50 3 -0.5658129536900774 10.164150807945456 -4.92935601414501 -11.577385444564317 0 0 0
51 2 0.5037744786217299 8.965289554880188 -5.702401837069079 -11.15199272560715 0 0 0
52 2 0.5346005969408585 6.146461028973015 -4.462357438633644 -6.7794463183098115 0 0 0
54 2 0.5337840223544378 7.406791265480104 -2.4609241558496104 -6.487419756909354 0 0 0
56 4 -0.4278930932237547 10.839492877004599 -2.5751572049746922 -11.252436076984518 0 0 0
72 1 0.08554250231988052 9.47094726403177 -1.822659805461365 -8.653398329516698 0 0 0
53 3 -0.6148516137053205 6.381585524657332 -3.298744870042802 -6.029347528974068 0 0 0
95 2 0.5415900720452184 -6.787934136215099 5.445975537738255 -7.571036138023844 0 0 0
99 4 -0.4893633171808128 -8.030123198320094 5.32663132709976 -7.486947626164658 0 0 0
100 2 0.2771388557494653 -6.316381479754417 4.256509479425333 -9.691895385736954 0 0 0
104 2 -0.06634815243129512 -8.129012409337614 3.4456140987911796 -11.109402863450262 0 0 0
105 2 -0.04439441425714483 -7.721147596533168 4.08582549995068 -9.948024934824888 0 0 0
117 1 0.04906680328002246 -9.21824183676737 3.3158375921164907 -11.275169788596843 0 0 0
118 1 0.1302328646083121 -8.499061393648063 4.45462887473659 -9.267227750596492 0 0 0
94 3 -0.6186095895594109 -5.88887399141291 4.950944917420864 -8.549509514833488 0 0 0
102 2 -0.04299130425020534 -5.825407555714882 3.0714386017337523 -11.75945259313774 0 0 0
93 2 0.5436336659584756 -4.529977947229546 5.263214680767641 -8.287101917127245 0 0 0
98 4 -0.5008668546480139 -3.501357968746792 4.95111269499707 -8.922522212129774 0 0 0
101 2 -0.04738634010628735 -5.363662179795839 3.7011266727489094 -10.61535051314814 0 0 0
115 1 0.1311859364234412 -4.280051144960555 3.7627140990137264 -10.453246166376594 0 0 0
137 4 -0.4564807997075873 -0.06967323913302287 0.7205415500874575 -9.22597750448086 0 0 0
155 1 0.06941956762301704 -0.37100928237392444 1.0157796491351918 -6.265169068492629 0 0 0
124 1 0.2587345163626422 1.0016653085671456 2.7237099741804265 -10.775029799757045 0 0 0
129 2 -0.05862380498924865 0.5314228376362269 2.533190309497834 -7.599066329770573 0 0 0
130 2 -0.04718335705310325 1.140220264356242 3.773623628288324 -7.731724805005938 0 0 0
131 2 0.5122511038831411 1.5463743728627686 3.9922373642322913 -9.23458741341349 0 0 0
132 3 -0.5764932344128557 1.356508311189149 2.6433632057427396 -9.842949588675568 0 0 0
133 2 0.4954756042198944 0.44388023505339846 1.8216443774765019 -9.000000453359617 0 0 0
138 4 -0.4114678414965358 2.0712291417426014 5.006409499882845 -9.708930054411164 0 0 0
172 2 0.5006264025386813 3.813322077779826 0.34589981562508826 -8.771082098794619 0 0 0
179 4 -0.4066624285696155 4.717858255361662 1.1769255165401111 -8.917869225975675 0 0 0
166 2 0.03517625966694718 3.376166280796129 0.5492112719808441 -6.167884390101767 0 0 0
128 2 0.03460378651202481 0.09269074548704886 2.0101443689048577 -6.377459027279534 0 0 0
125 2 0.04878541802565874 1.3441334387852595 4.6546769052274435 -6.658607947820494 0 0 0
154 1 0.07775186700446633 1.8156820349175304 5.646162659629012 -6.764833853801061 0 0 0
85 2 -0.05452830615262211 -5.868094799474043 6.237154233426671 -6.516388107422584 0 0 0
86 2 -0.05851134511431929 -4.555149354135607 6.146209454003596 -6.939035871513282 0 0 0
87 2 0.04757971788610015 -3.4878581121551475 6.750897962589905 -6.269888136475811 0 0 0
114 1 0.07939022864307452 -2.4401250659971 6.691283413311413 -6.609494461364925 0 0 0
370 1 0.2585598354026042 2.7690260567636162 11.200824814431058 -8.566825002540156 0 0 0
377 2 0.5027186793229176 3.70034421296722 11.52555945270279 -6.748052386756232 0 0 0
378 3 -0.5667660384133183 2.5026589760034734 11.401791727992382 -7.624762222090097 0 0 0
379 2 0.5050444993972371 1.573135143833898 10.360644746868571 -7.10205536138555 0 0 0
383 4 -0.4135422183555759 0.5723330693839301 9.856747465615777 -7.624833467163625 0 0 0
384 4 -0.4326986346696038 4.760189199591268 12.135449114703631 -6.929150350525076 0 0 0
244 1 0.04336296959653139 10.718281274615146 -13.036466729136677 -0.5959934886649082 0 0 0
234 2 0.002371297115943804 10.423405672003994 -12.137511299992896 -0.034440766722127106 0 0 0
247 1 0.2613260133580165 -6.129273128118094 -3.844168670103643 -2.4681221143982626 0 0 0
255 3 -0.5649509834363649 -6.111972229792015 -3.9471414165046363 -1.4744225590857385 0 0 0
256 2 0.504100488173263 -6.785480394743672 -2.7945126347309905 -0.8110775006808059 0 0 0
260 4 -0.4314170870916136 -7.8637561759851735 -2.247434567034548 -1.068722490424518 0 0 0
82 1 0.07871350720671877 -1.2440274800077666 -5.487445246541641 -0.3677866021544065 0 0 0
200 1 0.1260717952440246 -0.5641368426974023 -1.3275800641307558 -1.6087374815966742 0 0 0
254 2 0.5166589186612157 -4.711411539176816 -4.089827889627197 -0.9819983785887204 0 0 0
261 4 -0.4617535805308181 -3.790131460204003 -4.803795713225756 -1.3939365043429308 0 0 0
69 2 -0.008992667575843428 -0.23092738463480045 -5.06602906698501 -0.47842959682620284 0 0 0
180 4 -0.4930484015975495 0.08310963746877921 -2.1912753246554346 -3.708831247250972 0 0 0
187 2 -0.03461168246115413 0.318092284129044 -1.0953680682725082 -0.9972071463598892 0 0 0
59 2 0.2598896498333191 5.689179075781403 -3.0925302991199217 -4.772573905990074 0 0 0
61 2 -0.0249836902312413 5.745618589485652 -2.822394303270761 -2.378163793357621 0 0 0
62 2 0.2604148734807726 4.366554793462148 -3.098178792810806 -2.3028809770305307 0 0 0
63 2 -0.07110241394508794 3.6346082169854403 -3.2392478124615325 -3.5021596195566866 0 0 0
64 2 -0.02971246245706993 4.271515469888178 -3.2573463711560087 -4.747445872367669 0 0 0
65 4 -0.4966679393950212 3.7054026060846335 -3.2102068973366538 -0.9450274682276121 0 0 0
66 2 0.2499979005070104 2.356288568989054 -3.9135752779092874 -0.7971004727343542 0 0 0
70 2 0.02300573211586567 0.48997962921042154 -5.2413272085572 -1.6773307857429183 0 0 0
71 2 -0.06491064364255461 1.7852255975907971 -4.685364032632713 -1.822128501941252 0 0 0
76 1 0.06256408522804466 2.526647663772743 -3.334886408722219 -3.4824233956690085 0 0 0
77 1 0.07975786689484528 3.69729487163874 -3.4300166726896903 -5.6684865085859455 0 0 0
80 1 0.06907388099922721 0.04247052686407372 -5.809620370234324 -2.5066856533234416 0 0 0
81 1 0.06091021011951898 2.33683480388233 -4.892461818493011 -2.763568269302554 0 0 0
168 2 -0.06824241191795233 1.5864932204550417 -0.9349231324638659 -5.364696973773694 0 0 0
175 2 0.5510051625407347 0.9350126861966398 -1.3060358194235884 -3.924784966337303 0 0 0
176 3 -0.610662943092149 1.6982824744117877 -0.5575290523594836 -3.00673702174603 0 0 0
182 2 0.264173327647292 1.5466462308047617 -0.6757960819087607 -1.595682000392186 0 0 0
183 2 -0.02779205542312199 2.69776439455757 -0.39553530572113565 -0.7945690095909209 0 0 0
197 1 0.1203619516179639 3.6644280880722815 -0.10551191536458726 -1.2270506982869105 0 0 0
58 4 -0.4469884911347631 7.8301829125461575 -1.3909100934032836 -6.003750721282913 0 0 0
60 2 -0.01477172145823091 6.431334684268802 -2.787722195247553 -3.5912635570144027 0 0 0
74 1 0.1409317781207898 7.516354364733755 -2.6108496703059947 -3.619689424163328 0 0 0
75 1 0.1543695160887443 6.305780150913624 -2.653060887237583 -1.4405531269607117 0 0 0
338 2 0.5358681159205315 9.030543663554173 -0.44532766060019446 -1.27604623940008 0 0 0
342 4 -0.4922240119278078 8.147899068369323 -1.175397022768554 -1.740694529126941 0 0 0
139 4 -0.4788015582192882 -0.4086300754269093 1.5481993677885806 -3.2602454955586397 0 0 0
167 2 -0.06835733505855604 2.56958207434004 0.015601082315162797 -5.159517272723176 0 0 0
177 2 0.5271146265764799 2.6307997758545167 0.3379923918840598 -3.5755584832014096 0 0 0
181 4 -0.4837457339515004 3.3569782013460148 1.1951270406928811 -3.0310667406730807 0 0 0
134 2 0.5437149431588594 0.07982896069878019 2.593566677155404 -3.7385014856176757 0 0 0
146 2 -0.009978560676710298 0.6733440879211247 2.709504675167879 -0.9099691838252447 0 0 0
159 1 0.1133191095467803 0.9014507602019806 1.748122889915584 -1.3881355005971603 0 0 0
126 2 -0.0534563517523426 0.9195702334769135 4.1278281153781835 -5.435463044436879 0 0 0
127 2 -0.06054111794182449 0.35371334453149544 2.872713991426032 -5.308715630708565 0 0 0
135 3 -0.6054366162194846 0.5140890692923465 3.7746605662893282 -3.1017273577063555 0 0 0
136 2 0.5558894139525996 1.0068180258941204 4.7841593260054704 -3.9516551262939728 0 0 0
140 4 -0.4836211381521561 1.4624949315069964 5.910936200235918 -3.671989846280442 0 0 0
141 2 0.2853930031530809 0.466789143484028 3.897470208040068 -1.6789067261896116 0 0 0
142 2 -0.03316105453173694 0.21837239863775051 5.157175450972438 -1.048429839043796 0 0 0
195 1 0.08561523928875912 4.163333435743848 1.3015455452331124 -5.99093933982918 0 0 0
329 1 0.2699880981542966 10.003432707400394 0.5335633018210695 -2.817780090529176 0 0 0
336 2 0.5059397094235486 10.873251204456043 1.150589259120396 -1.0414092940861057 0 0 0
337 3 -0.5701966570374087 10.236212698322682 0.13732961310432987 -1.9293854698099404 0 0 0
343 4 -0.4302026397024828 11.770831070374246 1.9657384167740333 -1.281551259943893 0 0 0
84 2 0.04439989589582221 -6.278520284230901 6.918191826685662 -5.3663906217290975 0 0 0
97 4 -0.418469487007301 -6.312613592177183 8.56764446253546 -2.6960694278187494 0 0 0
113 1 0.08386101869495141 -7.327959042597277 6.97981703767982 -5.03250806554686 0 0 0
83 1 0.2739674696524527 -3.6296414678010223 9.043641137826299 -2.3354158315064857 0 0 0
88 2 -0.05517980535800723 -3.8954211238762566 7.448951079539946 -5.127826594125747 0 0 0
89 2 -0.05448119489047735 -5.212408746459448 7.521893843839425 -4.69539259252205 0 0 0
90 2 0.5014448800582412 -5.296655067330866 8.368936362885723 -3.371215680715525 0 0 0
91 3 -0.5608545753521372 -3.9467078462560727 8.991914290016759 -3.282073365765253 0 0 0
92 2 0.5214683645332957 -2.9754033519101224 8.254483165473832 -4.139424949855234 0 0 0
96 4 -0.4574719649686618 -1.7437004190987004 8.342162818207079 -4.201906770511268 0 0 0
156 1 0.1446305838078695 0.07902958222132145 6.075808401784873 -1.63621048755777 0 0 0
371 2 0.04250760853833931 3.862501937648319 10.94948282047068 -4.1544815557419295 0 0 0
372 2 -0.05263028748333465 3.139968502107586 10.308882934779396 -3.1425045586085782 0 0 0
373 2 -0.03348971686383381 1.960781421652201 9.614369670923052 -3.3457053296986468 0 0 0
374 2 0.05249258071854245 1.3427530051915046 9.494790483793098 -4.594036156455999 0 0 0
375 2 -0.04818692139371562 2.0244536616614535 10.194032380169709 -5.604060910900457 0 0 0
376 2 -0.05230713252905564 3.221083503341705 10.868282594789408 -5.399576448840907 0 0 0
380 2 0.5629632154391895 1.4401099337671777 9.069439427439127 -1.8974565696700063 0 0 0
381 3 -0.6165615194620734 2.3830149430985674 9.58815623056399 -1.0054909801376013 0 0 0
382 2 0.5460955471550145 3.4655523706937963 10.28913220655239 -1.5454399487881523 0 0 0
385 4 -0.4740070685352639 0.3967258300346981 8.424136233480013 -1.6655435661719256 0 0 0
386 4 -0.4783366877430568 4.441230070754548 10.818382143847051 -0.9723349812594423 0 0 0
400 1 0.07993706372867923 4.8016547895468555 11.502495425476742 -3.982045880481203 0 0 0
401 1 0.1340198947791639 0.3960662030862869 8.9550315572558 -4.759242076808297 0 0 0
245 1 0.08590656870374935 8.330834060843458 -12.718850254469608 0.07898737473200942 0 0 0
227 2 -0.04433769886508417 5.84133257455129 -8.930037928006604 2.665782209459618 0 0 0
228 2 -0.04169065930543181 5.506236648040757 -7.629217251637448 2.999024792783297 0 0 0
240 1 0.08773072641508599 5.3308900672415245 -9.76609793386182 3.17741027094503 0 0 0
241 1 0.1134041722481168 4.732041266668736 -7.447356215187727 3.755535666016733 0 0 0
235 2 -0.05244987158047925 9.079654892801127 -11.954678998785923 0.3478435834115782 0 0 0
223 2 0.2717342542022331 6.1800260544179855 -6.558050158185965 2.3281462049166697 0 0 0
224 2 -0.03791145512721277 7.143249310972887 -6.828749140764515 1.3020077649998958 0 0 0
225 2 -0.0665588589786459 7.462765921243898 -8.154328543246047 1.0335503836315039 0 0 0
226 2 0.2490905437524862 6.839613588867213 -9.21718659153386 1.718332336935653 0 0 0
229 4 -0.4683147548780083 7.2014212660546075 -10.656573821651802 1.4373037791121601 0 0 0
230 2 0.2504529006071157 8.670884426935991 -10.815580875904622 1.0478862756919258 0 0 0
231 2 -0.07779335865265226 9.636630602029326 -9.865734453630143 1.4056628536888847 0 0 0
232 2 0.004081065739595623 10.989893805777012 -10.032411012967962 1.0421935863438336 0 0 0
233 2 -0.01661510505688184 11.389092934104182 -11.169985349394178 0.31053792385035545 0 0 0
239 1 0.05304695215504628 8.2094338812886 -8.366037211830447 0.24779130056722468 0 0 0
242 1 0.04802095471048341 9.358878017831067 -8.97962955073584 1.9990481693118791 0 0 0
243 1 0.03836550411427255 11.733227593178528 -9.274500066128091 1.3314484102648756 0 0 0
238 1 0.1139897787377671 7.653175705854052 -6.023913360776945 0.7566142979410629 0 0 0
246 1 0.04341429072654217 12.443605306182192 -11.305159020212113 0.020143997393090286 0 0 0
251 2 0.04429151637529733 -6.194878981181758 -1.6994105631980607 1.5374564711619332 0 0 0
262 4 -0.4838363374806571 -6.042706262459864 -0.10654521726223226 4.310994856001268 0 0 0
278 1 0.08798553628527911 -7.131617311637685 -1.1230108579234164 1.6241659360318164 0 0 0
199 1 0.05625022390298236 -0.6810580288077646 -1.5754649698603083 0.8623202223608487 0 0 0
248 2 0.04405769694361096 -3.690115022685727 -3.2221485904262677 1.3090071280685454 0 0 0
249 2 -0.06548563560732309 -4.000994347157436 -2.3950135360982157 2.391334149708567 0 0 0
250 2 -0.05364338224167624 -5.181109909541629 -1.6824187429517856 2.499476512939982 0 0 0
252 2 -0.05055691685453743 -5.8905276350451246 -2.533174939567526 0.4556965974816668 0 0 0
253 2 -0.05775417555071908 -4.711046906450528 -3.2586375221135215 0.3523634605491518 0 0 0
257 2 0.5338465081417043 -5.142275923685276 -0.8637866534399232 3.8902857910122948 0 0 0
258 3 -0.6271803844502659 -3.9044530318290236 -1.211531362302915 4.477968706668302 0 0 0
259 2 0.5411472536994461 -3.1077569527612052 -2.0874501348866117 3.7001942556620415 0 0 0
263 4 -0.5347338628740166 -1.9367408847888894 -2.4789130606908336 3.8836320844660586 0 0 0
264 2 0.2641836543326973 -3.5061654128751885 -0.7302632292834245 5.744750827700933 0 0 0
277 1 0.04953011322610779 -2.749624080791812 -3.7911510536436337 1.2237669504262267 0 0 0
79 1 0.06146706589098797 -0.1455002218242552 -4.258779092529489 1.5487823657379356 0 0 0
204 1 0.06508448345824872 -1.2411339648818978 -0.3295708377248186 1.8921594785508196 0 0 0
186 2 -0.06319670243139787 0.2610467428095064 -1.2013801977636236 0.3967984532002794 0 0 0
189 2 0.2847730993994759 0.33205425717201226 -0.2457672151452231 3.455332179928304 0 0 0
67 2 -0.06721350803187889 1.6659541849717163 -3.824558119462113 0.41871614430986703 0 0 0
68 2 0.001025533380111592 0.3816978886179937 -4.37844089125078 0.590113869176794 0 0 0
78 1 0.07973833081307702 2.1323410862692604 -3.284551598365394 1.2593860147713676 0 0 0
184 2 -0.04162815922505105 2.5730011480900843 -0.5273670816393959 0.5690671686251593 0 0 0
185 2 0.2375024937914498 1.3781259135828012 -0.900132196556872 1.1957664642773302 0 0 0
188 4 -0.4974312953301263 1.3634336734588994 -1.0334681538650095 2.717031878122551 0 0 0
198 1 0.08445590871338053 3.4523698302253822 -0.31302304578209483 1.1974205301833873 0 0 0
207 2 0.06627596215583069 4.687144078065966 -2.4450598436176367 4.920454507657054 0 0 0
208 2 -0.02676688724761478 5.138643806824472 -3.286191694798256 3.8982135509428475 0 0 0
209 2 -0.0307326070402078 5.500384794206333 -2.8499427347236153 2.6370323803481233 0 0 0
210 2 0.05355330634483282 5.395518026236533 -1.5233876505998798 2.2216339656946693 0 0 0
211 2 -0.02761938099395563 4.94761699097642 -0.6758971008614619 3.240657558072459 0 0 0
212 2 -0.02042937459680036 4.6225463932576965 -1.1064444507955022 4.517305886427249 0 0 0
217 3 -0.6147701868809007 5.862521832031454 -5.218511637690662 2.6786649980286126 0 0 0
218 2 0.5472764133575578 5.359387337746249 -4.886864459595679 3.95614458405902 0 0 0
236 1 0.07912601913414771 4.422767176055647 -2.796458415739738 5.9323633740161785 0 0 0
237 1 0.05505873362039891 5.681254025673328 -1.175502718173544 1.2139259742943134 0 0 0
222 4 -0.4804684214634928 5.144469599894126 -5.616150897127556 4.946855694788346 0 0 0
201 1 0.106512350542449 1.5204117140226499 -0.23614675937915222 5.286998296815665 0 0 0
216 2 0.5571023547692214 6.055597974804336 -4.125550639336208 1.8057219210161757 0 0 0
221 4 -0.5063922635810229 6.521104657475286 -4.0972459265731835 0.6488156739257711 0 0 0
332 2 -0.06278294443609178 8.95209353758796 -0.10722453947114112 2.555036195657133 0 0 0
333 2 0.05124374926536889 8.51036647792707 -0.6051147932961456 1.32532200266694 0 0 0
339 2 0.5539609893729458 8.414548065404682 -0.4642344751342029 4.036690201915888 0 0 0
344 4 -0.5563888478478701 7.466114040165211 -1.2328557417441013 4.302882448087284 0 0 0
360 1 0.0617963492327943 7.686814758594237 -1.3310935839980023 1.2169243266965408 0 0 0
334 2 -0.05313321667617764 9.240618140405285 -0.0975620281191176 0.24427964042403805 0 0 0
301 4 -0.3984199025260502 -6.599636423093404 4.219032131959491 2.3011260725856264 0 0 0
288 1 0.2631508985265966 -4.973846615338251 2.2277805841734395 0.9665986226948972 0 0 0
148 2 0.1959806754585097 -0.9239747391027348 5.0012394502765005 3.2550651667242803 0 0 0
149 2 -0.04025084961191992 -2.088588539142079 5.536483667659541 2.2708451795821625 0 0 0
160 1 0.0483788442876775 -1.83587926197044 5.640754585634049 1.2027685895525324 0 0 0
191 2 0.02901652751677144 -0.17719945971425313 1.0044891077078784 5.471149125269892 0 0 0
192 2 -0.02833133584669326 -1.4158766273026044 1.654564879386289 4.8081164454459095 0 0 0
193 2 0.02006379905466943 -1.8103602835056913 0.8657303784628602 3.545794176587359 0 0 0
194 2 -0.04072917777125713 -0.9165302376711271 0.09903363579539695 2.870687546071244 0 0 0
203 1 0.04727154990225654 -2.7933400767941556 1.030562804154281 3.1081904784074816 0 0 0
205 1 0.06202853527553821 -2.2692738702138624 1.6333419527029305 5.529700187426758 0 0 0
282 1 0.1172009084839011 -4.945348867439078 0.9649611029074118 5.790567296937201 0 0 0
289 2 0.01265759502513215 -2.040001897451312 4.163797598487918 3.88859257856442 0 0 0
290 2 -0.07947354783415309 -2.6485380275443227 4.686001482692007 5.044194512235921 0 0 0
291 2 -0.05547201764312831 -3.377949456478397 5.925796910519055 4.933233087131362 0 0 0
292 2 0.02757683882456543 -4.263162128643672 6.007496939062075 3.5601687758729246 0 0 0
293 2 -0.06115296731992666 -4.271842911929328 4.722143491063854 2.9256059104833994 0 0 0
294 2 -0.04985721096812852 -2.9430839959507207 4.216973534749236 2.6764274498330507 0 0 0
295 2 0.5486562608727285 -3.1384552378088806 3.0090297568877458 1.5343341713711807 0 0 0
296 3 -0.6004409563847709 -4.548377796160906 3.0422149760557637 1.3469386152809333 0 0 0
297 2 0.5030563563101828 -5.373045778596498 3.9636131895407516 2.2898676489341723 0 0 0
302 4 -0.5320739452952881 -2.2641536092005303 2.367009445711497 0.9694550920228162 0 0 0
318 1 0.07468106500124928 -1.1814774690019756 2.756370227939629 4.492488462626457 0 0 0
144 2 0.2727847192421889 0.2679049045883635 4.007057050815508 1.106899492654526 0 0 0
145 2 -0.01292969455567348 0.5833714418974161 2.7958080726521426 0.46049773471816624 0 0 0
147 4 -0.4757250666689578 0.1344930421003797 4.018455053642442 2.5943172793792133 0 0 0
158 1 0.08048596765645563 0.7361225381640194 1.8874007342591024 1.0686291203207217 0 0 0
163 1 0.07977710710166609 0.7876608727576827 5.9926429297473724 4.426257591970444 0 0 0
143 2 -0.06244652180053536 0.10026106727235554 5.176702129974768 0.3361928564093261 0 0 0
190 2 -0.04181687235246138 0.6103453887000759 0.1619407234620328 4.791559267589935 0 0 0
206 1 0.2542564942973548 4.335016580699255 2.087505565099526 4.7769421172026885 0 0 0
213 2 0.5077247331023813 4.199179567027981 0.12203683963954498 5.405116547728465 0 0 0
214 3 -0.5712985826335913 4.0230450270962335 1.2135718168789946 4.405656071117963 0 0 0
215 2 0.5080524480141874 4.765136652220091 0.88091836346461 3.15401365337354 0 0 0
219 4 -0.4610020023852252 5.030194395856219 1.5878983512593356 2.1749281482041583 0 0 0
330 2 0.04769637885127986 10.708901859341903 1.3215805224101835 1.6084713757901796 0 0 0
331 2 -0.05007506600481488 9.982348145548194 0.8060744791151129 2.686028625129536 0 0 0
335 2 -0.05104013431965546 10.282894176073967 0.8096551352095728 0.3768472545296137 0 0 0
340 3 -0.6239765623526062 9.218310956268011 0.3064007325391343 4.905570611345937 0 0 0
341 2 0.5415693008705367 10.173945586516083 1.124699654163153 4.259248357531709 0 0 0
345 4 -0.4781948899322293 11.023048845922915 1.8991520381794968 4.746440406371218 0 0 0
359 1 0.08435950038596211 11.534634823283833 2.04479550368817 1.7181928045646537 0 0 0
150 2 -0.01640418743071766 -2.942589864566907 6.684349123223304 2.851465467260737 0 0 0
153 2 -0.03958621695606967 -0.28025294692916564 6.059786962661833 4.173100525287125 0 0 0
319 1 0.08501534722246934 -5.216815846216559 6.567387303140103 3.615166228555444 0 0 0
157 1 0.0490463692251605 -0.11657133314916791 6.140539755193173 0.8406545022778783 0 0 0
1 1 0.2649501720812155 -0.2627041422022982 10.625530119474933 1.4172529105431322 0 0 0
5 2 0.03684950780818316 -2.7383522921749277 10.49415830331328 5.364165347398712 0 0 0
6 2 -0.06595967930373607 -1.8051138671195142 10.698314189545163 4.362175027813423 0 0 0
7 2 -0.04688254341973014 -0.5182818147784577 11.242952768954414 4.582927388904148 0 0 0
9 3 -0.6600310945432178 -0.5258367303393406 10.734013660742615 2.3839813285606453 0 0 0
10 2 0.535555404480666 -1.8863484271899997 10.346822492889949 2.838905874896398 0 0 0
14 4 -0.4913960733191324 -2.8067102939657116 9.759421927677945 2.247321078950704 0 0 0
32 1 0.0787495870738929 -3.734614999218962 10.045096331291377 5.199899184029792 0 0 0
151 2 -0.01384582015704483 -2.507012833402333 7.156886692564709 4.300676853312764 0 0 0
152 2 -0.01705922919866402 -1.0153404973637958 7.0396324702102575 4.643742237212227 0 0 0
161 1 0.101258114284535 -3.1629777732349216 7.49541191757384 2.137076378473387 0 0 0
162 1 0.05237901109575421 -0.5533619780480233 7.793342340519156 5.297750381927309 0 0 0
164 1 0.044609772605665 -2.9087937457583948 8.146992110826428 4.582641800102374 0 0 0
2 2 0.05005575577875555 -0.05209129470746 11.648506974859039 5.8756632256104355 0 0 0
8 2 0.5171466276765603 0.22315977731294814 11.212012555270523 3.2940006088589153 0 0 0
15 4 -0.4806283377271351 1.6003976432975449 11.67694848895822 3.1436950629254774 0 0 0
387 2 0.2636986278219653 2.226851990106366 9.462524529326448 0.44062367929168683 0 0 0
388 2 -0.07009102102622311 2.561603154752916 10.49668378657859 1.221042335723251 0 0 0
389 2 0.1248031214903868 2.4581772458373705 10.396804584628628 2.6170792476374465 0 0 0
390 2 0.2286028004174875 1.9189234283082133 9.175864665584307 3.1304161924770564 0 0 0
391 2 -0.05550409195057747 1.5576867110155759 8.158373336582368 2.3232257225487194 0 0 0
392 2 -0.0336783347631164 1.6799934438197497 8.229781489067609 0.9709998837002842 0 0 0
393 4 -0.5228600617031353 1.7677524695911762 9.02266263276127 4.564459949456353 0 0 0
394 2 0.253663015005214 2.9474001848620004 9.642445939380172 5.3614565899612385 0 0 0
399 2 -0.06951858823822385 4.20966540310786 9.818364509572495 4.793044560829228 0 0 0
402 1 0.1341544659812639 2.957379459035138 11.414855633190395 0.7853362999324963 0 0 0
403 1 0.05376337830722725 3.4736332815800166 10.67593190061008 3.0367246684044162 0 0 0
404 1 0.06233478924881586 1.1550472960941496 7.229662070903491 2.765466567486961 0 0 0
405 1 0.08723801274087406 1.3915196351661474 7.393840216582365 0.3259902672455957 0 0 0
409 1 0.04671456051061706 4.415553734346863 9.473407852820758 3.752875541457224 0 0 0
398 2 0.00880197697055878 5.262136368185964 10.419719999677225 5.5186854135251195 0 0 0
408 1 0.04321910663767061 6.240022714304745 10.576023869598869 5.039509383268776 0 0 0
265 2 -0.04999881117297456 -2.426744047651921 -1.3697962420448448 6.440163547433259 0 0 0
266 2 -0.05087290689227774 -2.031736616922559 -0.8541721529953714 7.661626107348218 0 0 0
279 1 0.1192529733694938 -1.9128702034817302 -2.2530058278887943 6.039919320496729 0 0 0
280 1 0.08944530403770778 -1.204044506750888 -1.3430151615297605 8.20712673294173 0 0 0
347 2 -0.04542215867097852 8.452694019808947 -0.9032109556175919 6.906065814244289 0 0 0
348 2 -0.04732729731408655 8.363208425104224 -0.9680134408347355 8.28373360746336 0 0 0
361 1 0.1166049658395235 8.059703111731725 -1.735296674867978 6.307816605674655 0 0 0
362 1 0.08814208363866537 7.881776555699138 -1.8452134129735496 8.752448560395312 0 0 0
352 4 -0.4631166563263942 8.708299075703133 -0.03374752671650763 10.603263094381775 0 0 0
285 1 0.0466949564431117 -6.278730543050318 2.929663612473693 10.578484254227963 0 0 0
269 2 -0.05558894058044749 -4.143411198445129 0.4251619869598086 6.30984550710549 0 0 0
300 2 0.5219564010669722 -2.47351223885314 4.289267177741854 6.554240510921992 0 0 0
267 2 0.2624127619947101 -2.650805433581414 0.27164621539444533 8.235639520919612 0 0 0
268 2 -0.05626838167656222 -3.68097354221012 0.9216898807503819 7.5243952875616475 0 0 0
270 4 -0.4643547255923074 -2.1692151901014314 0.764743308840999 9.579054764261382 0 0 0
271 2 0.26197903615444 -3.0564695855777253 1.7294786946877752 10.363900793499612 0 0 0
272 2 -0.05638070225767243 -2.5001132664833396 2.4637932381087113 11.416566340908751 0 0 0
274 2 -0.01835132348132687 -4.632656818194851 3.570334330937119 11.85391387347912 0 0 0
275 2 0.01280028698289221 -5.211906809553309 2.8092956648257568 10.819072853198485 0 0 0
276 2 -0.06903620332695226 -4.426054207604245 1.8769613164370442 10.09910069848127 0 0 0
281 1 0.06643835194780952 -4.133953825252841 1.863002106261174 7.908063252716372 0 0 0
283 1 0.07974793488915441 -1.4321740538456766 2.331606927036942 11.659356349681904 0 0 0
286 1 0.05244218701077809 -4.930397460001314 1.2514490629190531 9.332987572227248 0 0 0
299 3 -0.573440689810006 -3.1792390009137623 5.35117481318586 7.257679473784265 0 0 0
304 4 -0.5308096322852165 -1.8284595381260604 3.3324575183533502 7.036564498972065 0 0 0
306 2 -0.02441091384817127 -1.8623596659118309 5.250054876385624 9.356856693324742 0 0 0
307 2 -0.07206153163111124 -1.0898927685923299 5.915828400867326 10.314160207269252 0 0 0
320 1 0.08451187259075996 -2.096286158886616 4.182086843717107 9.464475395097566 0 0 0
321 1 0.04409444337504458 -0.7197251191940209 5.356807562289264 11.191383651716881 0 0 0
305 2 0.2364562056545328 -2.364006031962114 6.008293010498649 8.26214767575209 0 0 0
202 1 0.0935392523473674 0.09045644637081933 1.273008305341938 6.49269742696976 0 0 0
220 4 -0.4731984426012244 3.914941418607723 0.09116314209088318 6.607120860369293 0 0 0
355 2 0.00861014116168325 5.903897385647296 2.616873301449353 10.578721899279211 0 0 0