# Data file generado desde PI-10M-1-4.xyz

410 atoms
4 atom types

-66.0976 66.0976 xlo xhi
-66.0976 66.0976 ylo yhi
-66.0976 66.0976 zlo zhi

Masses

1 1.007940   # H
2 12.010700   # C
3 14.006740   # N
4 15.999400   # O

Atoms

1	1	0.0	-0.6415	10.9743	0.8084
2	2	0.0	0.0435	11.2395	5.3338
3	2	0.0	-0.7933	10.7815	6.3767
4	2	0.0	-2.0034	10.1527	6.1492
5	2	0.0	-2.5146	9.9102	4.8543
6	2	0.0	-1.6797	10.3671	3.8113
7	2	0.0	-0.4659	10.9980	4.0388
8	2	0.0	0.1089	11.3270	2.7100
9	3	0.0	-0.7793	10.8808	1.8045
10	2	0.0	-1.8671	10.3000	2.3400
11	2	0.0	-2.5843	9.8278	7.4751
12	3	0.0	-1.7020	10.2725	8.4129
13	2	0.0	-0.6072	10.8536	7.8476
14	4	0.0	-2.8252	9.8110	1.7499
15	4	0.0	1.1776	11.8916	2.4994
16	4	0.0	-3.6671	9.2636	7.6357
17	4	0.0	0.3746	11.3541	8.3969
18	2	0.0	-1.9073	10.1482	9.8248
19	2	0.0	-3.2041	9.9260	10.3499
20	2	0.0	-3.4000	9.7885	11.7372
21	2	0.0	-2.3059	9.8655	12.6197
22	2	0.0	-1.0154	10.1011	12.1089
23	2	0.0	-0.8154	10.2396	10.7226
24	4	0.0	-2.4982	9.7239	13.9675
25	2	0.0	-2.6136	8.4402	14.4293
26	2	0.0	-3.7824	8.0336	15.1047
27	2	0.0	-3.9009	6.7134	15.5820
28	2	0.0	-2.8485	5.7972	15.3881
29	2	0.0	-1.6763	6.2033	14.7206
30	2	0.0	-1.5581	7.5239	14.2450
31	1	0.0	0.9898	11.7327	5.5111
32	1	0.0	-3.4623	9.4197	4.6769
33	1	0.0	-4.0633	9.8560	9.6978
34	1	0.0	-4.3922	9.6185	12.1276
35	1	0.0	-0.1753	10.1683	12.7837
36	1	0.0	0.1888	10.4109	10.3613
37	1	0.0	-4.5881	8.7369	15.2536
38	1	0.0	-4.7985	6.4046	16.0976
39	1	0.0	-0.8669	5.5030	14.5740
40	1	0.0	-0.6590	7.8360	13.7352
41	1	0.0	-2.9396	4.7757	15.7573
42	1	0.0	10.4412	-4.9441	-12.5270
43	2	0.0	8.7822	-2.8979	-8.7747
44	2	0.0	7.9066	-3.4281	-7.8001
45	2	0.0	7.4078	-4.7163	-7.8579
46	2	0.0	7.7273	-5.6206	-8.8956
47	2	0.0	8.6020	-5.0926	-9.8700
48	2	0.0	9.1026	-3.8005	-9.8127
49	2	0.0	9.9736	-3.6186	-11.0013
50	3	0.0	9.9336	-4.7852	-11.6685
51	2	0.0	9.1586	-5.7217	-11.0943
52	2	0.0	6.5315	-4.9001	-6.6749
53	3	0.0	6.5533	-3.7282	-5.9809
54	2	0.0	7.3468	-2.7963	-6.5791
55	4	0.0	8.9445	-6.8642	-11.4871
56	4	0.0	10.5954	-2.6037	-11.2988
57	4	0.0	5.9216	-5.9395	-6.4217
58	4	0.0	7.5915	-1.6434	-6.2225
59	2	0.0	5.8223	-3.5036	-4.7701
60	2	0.0	6.3669	-3.8776	-3.5169
61	2	0.0	5.6523	-3.6408	-2.3273
62	2	0.0	4.3877	-3.0237	-2.3696
63	2	0.0	3.8314	-2.6621	-3.6112
64	2	0.0	4.5423	-2.8975	-4.8028
65	4	0.0	3.6985	-2.7879	-1.2108
66	2	0.0	2.5852	-3.5574	-1.0032
67	2	0.0	2.1285	-3.8019	0.3079
68	2	0.0	0.9843	-4.5954	0.5222
69	2	0.0	0.2960	-5.1498	-0.5749
70	2	0.0	0.7550	-4.9136	-1.8856
71	2	0.0	1.9000	-4.1212	-2.0988
72	1	0.0	9.1718	-1.8897	-8.7308
73	1	0.0	7.3354	-6.6279	-8.9412
74	1	0.0	7.3380	-4.3475	-3.4510
75	1	0.0	6.0764	-3.9287	-1.3770
76	1	0.0	2.8583	-2.1957	-3.6476
77	1	0.0	4.0916	-2.6002	-5.7392
78	1	0.0	2.6573	-3.3774	1.1481
79	1	0.0	0.6360	-4.7795	1.5280
80	1	0.0	0.2304	-5.3406	-2.7278
81	1	0.0	2.2533	-3.9417	-3.1032
82	1	0.0	-0.5893	-5.7638	-0.4097
83	1	0.0	-3.4994	9.2340	-2.5467
84	2	0.0	-6.2685	6.9075	-5.3644
85	2	0.0	-5.9448	6.2668	-6.5819
86	2	0.0	-4.6677	6.2585	-7.1114
87	2	0.0	-3.5695	6.8893	-6.4848
88	2	0.0	-3.8911	7.5298	-5.2683
89	2	0.0	-5.1719	7.5386	-4.7367
90	2	0.0	-5.1101	8.3049	-3.4665
91	3	0.0	-3.8292	8.6904	-3.3316
92	2	0.0	-3.0254	8.2905	-4.3322
93	2	0.0	-4.7263	5.4989	-8.3845
94	3	0.0	-6.0179	5.0974	-8.5461
95	2	0.0	-6.8124	5.5107	-7.5195
96	4	0.0	-1.8236	8.5017	-4.4609
97	4	0.0	-6.0470	8.5310	-2.7072
98	4	0.0	-3.7565	5.3032	-9.1176
99	4	0.0	-8.0171	5.3223	-7.3480
100	2	0.0	-6.4833	4.3368	-9.6668
101	2	0.0	-5.7948	4.3776	-10.9041
102	2	0.0	-6.2460	3.6163	-11.9990
103	2	0.0	-7.3863	2.8002	-11.8744
104	2	0.0	-8.0862	2.7645	-10.6535
105	2	0.0	-7.6387	3.5244	-9.5567
106	4	0.0	-7.8184	2.0553	-12.9384
107	2	0.0	-8.9853	2.4634	-13.5270
108	2	0.0	-9.4985	1.7656	-14.6392
109	2	0.0	-10.6980	2.1864	-15.2466
110	2	0.0	-11.3854	3.3092	-14.7450
111	2	0.0	-10.8704	4.0130	-13.6388
112	2	0.0	-9.6702	3.5923	-13.0330
113	1	0.0	-7.2678	6.9155	-4.9501
114	1	0.0	-2.5707	6.8840	-6.9005
115	1	0.0	-4.9127	4.9896	-11.0294
116	1	0.0	-5.7138	3.6535	-12.9377
117	1	0.0	-8.9656	2.1456	-10.5571
118	1	0.0	-8.1928	3.4685	-8.6303
119	1	0.0	-8.9704	0.9058	-15.0234
120	1	0.0	-11.0895	1.6485	-16.0976
121	1	0.0	-11.3944	4.8761	-13.2549
122	1	0.0	-9.2741	4.1328	-12.1863
123	1	0.0	-12.3135	3.6351	-15.2146
124	1	0.0	1.0287	2.9488	-10.2770
125	2	0.0	1.2945	4.4935	-5.9685
126	2	0.0	0.8158	3.8843	-4.7865
127	2	0.0	0.1653	2.6644	-4.7790
128	2	0.0	-0.0807	1.9149	-5.9514
129	2	0.0	0.3970	2.5220	-7.1332
130	2	0.0	1.0495	3.7457	-7.1414
131	2	0.0	1.3916	4.0465	-8.5546
132	3	0.0	0.9313	3.0078	-9.2734
133	2	0.0	0.3294	2.0547	-8.5409
134	2	0.0	-0.1841	2.3629	-3.3690
135	3	0.0	0.2710	3.4040	-2.6177
136	2	0.0	0.8796	4.3549	-3.3801
137	4	0.0	-0.1764	1.0094	-8.9372
138	4	0.0	1.9753	5.0446	-8.9649
139	4	0.0	-0.7780	1.3469	-3.0063
140	4	0.0	1.4002	5.4138	-3.0279
141	2	0.0	0.1201	3.4888	-1.1961
142	2	0.0	0.3127	4.7192	-0.5208
143	2	0.0	0.1480	4.8025	0.8748
144	2	0.0	-0.2159	3.6622	1.6159
145	2	0.0	-0.3948	2.4316	0.9561
146	2	0.0	-0.2307	2.3440	-0.4389
147	4	0.0	-0.3828	3.7477	2.9718
148	2	0.0	-1.2773	4.6861	3.4120
149	2	0.0	-2.4301	4.9752	2.6539
150	2	0.0	-3.3498	5.9422	3.1053
151	2	0.0	-3.1165	6.6256	4.3150
152	2	0.0	-1.9612	6.3443	5.0704
153	2	0.0	-1.0415	5.3782	4.6174
154	1	0.0	1.8025	5.4485	-5.9753
155	1	0.0	-0.5913	0.9612	-5.9452
156	1	0.0	0.5864	5.6135	-1.0626
157	1	0.0	0.2962	5.7450	1.3801
158	1	0.0	-0.6664	1.5536	1.5227
159	1	0.0	-0.3838	1.3868	-0.9169
160	1	0.0	-2.6075	4.4516	1.7264
161	1	0.0	-4.2331	6.1602	2.5229
162	1	0.0	-1.7791	6.8696	5.9965
163	1	0.0	-0.1549	5.1638	5.1952
164	1	0.0	-3.8278	7.3738	4.6647
165	1	0.0	3.5390	-0.0859	-10.1477
166	2	0.0	3.7847	-0.0273	-5.5700
167	2	0.0	2.7845	-0.3717	-4.6327
168	2	0.0	1.5227	-0.7996	-5.0019
169	2	0.0	1.1172	-0.9318	-6.3491
170	2	0.0	2.1153	-0.5883	-7.2867
171	2	0.0	3.3811	-0.1590	-6.9171
172	2	0.0	4.1337	0.1049	-8.1695
173	3	0.0	3.2863	-0.1782	-9.1742
174	2	0.0	2.0731	-0.5939	-8.7708
175	2	0.0	0.7651	-1.0584	-3.7529
176	3	0.0	1.6031	-0.7766	-2.7166
177	2	0.0	2.8263	-0.3610	-3.1490
178	4	0.0	1.1178	-0.9152	-9.4705
179	4	0.0	5.2920	0.5007	-8.2522
180	4	0.0	-0.4019	-1.4506	-3.7212
181	4	0.0	3.8109	-0.0312	-2.4870
182	2	0.0	1.2364	-0.8975	-1.3375
183	2	0.0	2.2249	-0.8849	-0.3229
184	2	0.0	1.8596	-0.9880	1.0328
185	2	0.0	0.5042	-1.1001	1.3962
186	2	0.0	-0.4845	-1.1288	0.3945
187	2	0.0	-0.1235	-1.0264	-0.9619
188	4	0.0	0.1514	-1.1927	2.7155
189	2	0.0	-0.3047	-0.0420	3.3006
190	2	0.0	0.4209	0.5523	4.3531
191	2	0.0	-0.0490	1.7352	4.9570
192	2	0.0	-1.2486	2.3248	4.5120
193	2	0.0	-1.9797	1.7285	3.4658
194	2	0.0	-1.5097	0.5450	2.8636
195	1	0.0	4.7718	0.3087	-5.2818
196	1	0.0	0.1292	-1.2651	-6.6373
197	1	0.0	3.2733	-0.7939	-0.5695
198	1	0.0	2.6205	-0.9765	1.7988
199	1	0.0	-1.5243	-1.2224	0.6696
200	1	0.0	-0.9068	-1.0427	-1.7066
201	1	0.0	1.3397	0.0991	4.6941
202	1	0.0	0.5103	2.1890	5.7621
203	1	0.0	-2.9014	2.1774	3.1255
204	1	0.0	-2.0709	0.0866	2.0631
205	1	0.0	-1.6126	3.2400	4.9789
206	1	0.0	4.1086	2.2298	4.4383
207	2	0.0	5.3672	-2.1665	4.7670
208	2	0.0	5.5084	-3.1189	3.7324
209	2	0.0	5.2707	-2.8258	2.4023
210	2	0.0	4.8651	-1.5481	1.9552
211	2	0.0	4.7237	-0.5954	2.9876
212	2	0.0	4.9618	-0.8888	4.3219
213	2	0.0	4.7068	0.3543	5.0927
214	3	0.0	4.3435	1.2800	4.1878
215	2	0.0	4.3191	0.8316	2.9206
216	2	0.0	5.5183	-4.0675	1.6291
217	3	0.0	5.8873	-5.0244	2.5256
218	2	0.0	5.9081	-4.5467	3.8013
219	4	0.0	4.0258	1.4581	1.9073
220	4	0.0	4.8109	0.4912	6.3075
221	4	0.0	5.3940	-4.1570	0.4072
222	4	0.0	6.1960	-5.1350	4.8440
223	2	0.0	6.2081	-6.3733	2.1670
224	2	0.0	7.4004	-6.6697	1.4617
225	2	0.0	7.7204	-7.9986	1.1247
226	2	0.0	6.8593	-9.0507	1.4902
227	2	0.0	5.6647	-8.7648	2.1779
228	2	0.0	5.3409	-7.4376	2.5163
229	4	0.0	7.1766	-10.3425	1.1679
230	2	0.0	8.5083	-10.6138	1.0019
231	2	0.0	9.4621	-10.0259	1.8576
232	2	0.0	10.8327	-10.3030	1.6860
233	2	0.0	11.2531	-11.1662	0.6551
234	2	0.0	10.3027	-11.7485	-0.2063
235	2	0.0	8.9326	-11.4698	-0.0348
236	1	0.0	5.5518	-2.3954	5.8081
237	1	0.0	4.6776	-1.3198	0.9146
238	1	0.0	8.0848	-5.8847	1.1725
239	1	0.0	8.6320	-8.2143	0.5879
240	1	0.0	4.9984	-9.5687	2.4528
241	1	0.0	4.4207	-7.2521	3.0521
242	1	0.0	9.1389	-9.3637	2.6468
243	1	0.0	11.5609	-9.8522	2.3444
244	1	0.0	10.6236	-12.4081	-0.9993
245	1	0.0	8.2040	-11.9144	-0.6962
246	1	0.0	12.3135	-11.3809	0.5219
247	1	0.0	-6.4745	-4.1539	-2.2170
248	2	0.0	-3.5649	-2.5608	0.9478
249	2	0.0	-3.8638	-1.9419	2.1828
250	2	0.0	-5.1566	-1.7256	2.6226
251	2	0.0	-6.2971	-2.1031	1.8785
252	2	0.0	-6.0002	-2.7217	0.6446
253	2	0.0	-4.7037	-2.9388	0.2028
254	2	0.0	-4.8012	-3.6017	-1.1222
255	3	0.0	-6.1158	-3.7311	-1.3728
256	2	0.0	-6.9115	-3.2481	-0.4028
257	2	0.0	-5.0637	-1.0574	3.9439
258	3	0.0	-3.7380	-0.9124	4.2212
259	2	0.0	-2.9518	-1.4115	3.2269
260	4	0.0	-8.1380	-3.2366	-0.3732
261	4	0.0	-3.8629	-3.9527	-1.8305
262	4	0.0	-6.0378	-0.7177	4.6164
263	4	0.0	-1.7230	-1.4462	3.1547
264	2	0.0	-3.2340	-0.3014	5.4144
265	2	0.0	-3.0645	-1.0598	6.5988
266	2	0.0	-2.5539	-0.4596	7.7654
267	2	0.0	-2.2005	0.9030	7.7663
268	2	0.0	-2.3793	1.6688	6.5987
269	2	0.0	-2.8899	1.0727	5.4305
270	4	0.0	-1.6971	1.4822	8.8998
271	2	0.0	-2.6034	2.1145	9.7082
272	2	0.0	-2.2020	3.2096	10.5000
273	2	0.0	-3.1335	3.8593	11.3336
274	2	0.0	-4.4687	3.4124	11.3801
275	2	0.0	-4.8704	2.3133	10.5960
276	2	0.0	-3.9379	1.6635	9.7638
277	1	0.0	-2.5536	-2.7292	0.6025
278	1	0.0	-7.3084	-1.9321	2.2224
279	1	0.0	-3.3208	-2.1095	6.6281
280	1	0.0	-2.4275	-1.0465	8.6629
281	1	0.0	-2.1165	2.7160	6.5984
282	1	0.0	-3.0072	1.6856	4.5479
283	1	0.0	-1.1781	3.5508	10.4643
284	1	0.0	-2.8231	4.6992	11.9378
285	1	0.0	-5.8931	1.9672	10.6329
286	1	0.0	-4.2450	0.8196	9.1642
287	1	0.0	-5.1899	3.9147	12.0249
288	1	0.0	-5.0019	3.1001	-0.0632
289	2	0.0	-2.2856	3.6536	3.5885
290	2	0.0	-2.4840	4.4881	4.7118
291	2	0.0	-3.5964	5.2952	4.8623
292	2	0.0	-4.6364	5.3601	3.9078
293	2	0.0	-4.4398	4.5269	2.7851
294	2	0.0	-3.3242	3.7172	2.6334
295	2	0.0	-3.4773	3.0038	1.3403
296	3	0.0	-4.6441	3.4266	0.8231
297	2	0.0	-5.2931	4.3221	1.5874
298	2	0.0	-3.4443	6.0148	6.1507
299	3	0.0	-2.2653	5.6045	6.6959
300	2	0.0	-1.6277	4.6957	5.9063
301	4	0.0	-6.3681	4.8671	1.3579
302	4	0.0	-2.6896	2.1967	0.8572
303	4	0.0	-4.2623	6.8229	6.5917
304	4	0.0	-0.5537	4.1238	6.0954
305	2	0.0	-1.7563	6.0792	7.9475
306	2	0.0	-1.6002	5.1977	9.0455
307	2	0.0	-1.0846	5.6643	10.2695
308	2	0.0	-0.7129	7.0143	10.4147
309	2	0.0	-0.8783	7.9015	9.3343
310	2	0.0	-1.3938	7.4391	8.1090
311	4	0.0	-0.2048	7.4637	11.6036
312	2	0.0	1.1432	7.3043	11.7829
313	2	0.0	1.6813	7.2417	13.0844
314	2	0.0	3.0685	7.0798	13.2695
315	2	0.0	3.9217	6.9840	12.1526
316	2	0.0	3.3874	7.0543	10.8511
317	2	0.0	2.0003	7.2175	10.6670
318	1	0.0	-1.4149	3.0227	3.4695
319	1	0.0	-5.5057	5.9931	4.0254
320	1	0.0	-1.8707	4.1545	8.9634
321	1	0.0	-0.9686	4.9844	11.1002
322	1	0.0	-0.6013	8.9392	9.4449
323	1	0.0	-1.5004	8.1433	7.2960
324	1	0.0	1.0266	7.3163	13.9398
325	1	0.0	3.4775	7.0306	14.2681
326	1	0.0	4.0405	6.9842	9.9935
327	1	0.0	1.5907	7.2735	9.6696
328	1	0.0	4.9950	6.8587	12.2953
329	1	0.0	10.0958	0.4782	-2.7068
330	2	0.0	10.8959	1.1011	1.7644
331	2	0.0	10.1113	0.6832	2.8631
332	2	0.0	8.9259	-0.0138	2.7194
333	2	0.0	8.3901	-0.3720	1.4619
334	2	0.0	9.1728	0.0447	0.3631
335	2	0.0	10.3618	0.7439	0.5066
336	2	0.0	10.8826	1.0009	-0.8598
337	3	0.0	9.9909	0.4511	-1.7026
338	2	0.0	8.9471	-0.1371	-1.0931
339	2	0.0	8.3987	-0.2672	4.0828
340	3	0.0	9.2855	0.2832	4.9581
341	2	0.0	10.3355	0.8699	4.3185
342	4	0.0	7.9964	-0.7098	-1.6162
343	4	0.0	11.9174	1.5958	-1.1438
344	4	0.0	7.3485	-0.8659	4.3173
345	4	0.0	11.3082	1.4522	4.7995
346	2	0.0	9.1265	0.2526	6.3811
347	2	0.0	8.4557	-0.8248	7.0105
348	2	0.0	8.3150	-0.8595	8.4108
349	2	0.0	8.8452	0.1762	9.2034
350	2	0.0	9.5002	1.2587	8.5863
351	2	0.0	9.6425	1.2974	7.1866
352	4	0.0	8.7135	0.1361	10.5652
353	2	0.0	7.7049	0.8941	11.0968
354	2	0.0	6.7539	1.5001	10.2508
355	2	0.0	5.7170	2.2819	10.7971
356	2	0.0	5.6310	2.4626	12.1916
357	2	0.0	6.5847	1.8647	13.0386
358	2	0.0	7.6219	1.0843	12.4913
359	1	0.0	11.8228	1.6475	1.8760
360	1	0.0	7.4617	-0.9158	1.3500
361	1	0.0	8.0432	-1.6378	6.4299
362	1	0.0	7.8029	-1.6855	8.8811
363	1	0.0	9.9011	2.0584	9.1908
364	1	0.0	10.1583	2.1378	6.7439
365	1	0.0	6.8213	1.3618	9.1820
366	1	0.0	4.9890	2.7435	10.1462
367	1	0.0	6.5222	2.0049	14.1079
368	1	0.0	8.3542	0.6276	13.1401
369	1	0.0	4.8290	3.0674	12.6148
370	1	0.0	2.6908	11.2908	-8.3971
371	2	0.0	3.7275	11.2562	-3.9312
372	2	0.0	2.9860	10.7042	-2.8622
373	2	0.0	1.7750	10.0610	-3.0395
374	2	0.0	1.1678	9.8965	-4.3048
375	2	0.0	1.9074	10.4473	-5.3739
376	2	0.0	3.1220	11.0926	-5.1967
377	2	0.0	3.5824	11.5290	-6.5391
378	3	0.0	2.6346	11.1240	-7.4025
379	2	0.0	1.6051	10.4786	-6.8273
380	2	0.0	1.3083	9.6288	-1.6992
381	3	0.0	2.2528	10.0298	-0.8034
382	2	0.0	3.2869	10.6779	-1.4088
383	4	0.0	0.6136	10.0070	-7.3747
384	4	0.0	4.6190	12.1351	-6.7910
385	4	0.0	0.2537	9.0262	-1.4959
386	4	0.0	4.2986	11.1644	-0.9029
387	2	0.0	2.1630	9.8015	0.6076
388	2	0.0	2.7428	10.7116	1.5255
389	2	0.0	2.6389	10.4923	2.9122
390	2	0.0	1.9517	9.3661	3.4033
391	2	0.0	1.3852	8.4479	2.4991
392	2	0.0	1.4872	8.6632	1.1120
393	4	0.0	1.8458	9.1594	4.7523
394	2	0.0	2.8688	9.6479	5.5201
395	2	0.0	2.7652	10.9254	6.1070
396	2	0.0	3.8184	11.4294	6.8954
397	2	0.0	4.9799	10.6578	7.0957
398	2	0.0	5.0892	9.3842	6.5037
399	2	0.0	4.0362	8.8818	5.7143
400	1	0.0	4.6745	11.7606	-3.7931
401	1	0.0	0.2194	9.3947	-4.4427
402	1	0.0	3.2713	11.5886	1.1797
403	1	0.0	3.0834	11.1924	3.6037
404	1	0.0	0.8642	7.5791	2.8725
405	1	0.0	1.0340	7.9443	0.4440
406	1	0.0	1.8749	11.5164	5.9521
407	1	0.0	3.7352	12.4081	7.3451
408	1	0.0	5.9805	8.7926	6.6535
409	1	0.0	4.1205	7.9065	5.2588
410	1	0.0	5.7951	11.0473	7.7056
